 Gaussian 16, Revision A.03,
 Gaussian 16:  ES64L-G16RevA.03 25-Dec-2016

 -----------------------------------------------------
 # opt freq em=gd3bj int=ultrafine pbe1pbe scf=xqc svp
 -----------------------------------------------------

 -------
 MODEL 1
 -------
 Symbolic Z-matrix:
 Charge =  1 Multiplicity = 1

 SCF Done:  E(RPBE1PBE) =  -808.717854849     A.U. after   21 cycles
 SCF Done:  E(RPBE1PBE) =  -808.799529557     A.U. after   14 cycles
 SCF Done:  E(RPBE1PBE) =  -808.908940116     A.U. after   14 cycles
 SCF Done:  E(RPBE1PBE) =  -808.972644464     A.U. after   14 cycles
 SCF Done:  E(RPBE1PBE) =  -808.989683466     A.U. after   13 cycles
 SCF Done:  E(RPBE1PBE) =  -808.997236345     A.U. after   13 cycles
 SCF Done:  E(RPBE1PBE) =  -809.002581767     A.U. after   13 cycles
 SCF Done:  E(RPBE1PBE) =  -809.007326754     A.U. after   13 cycles
 SCF Done:  E(RPBE1PBE) =  -809.010581209     A.U. after   13 cycles
 SCF Done:  E(RPBE1PBE) =  -809.012079538     A.U. after   12 cycles
 SCF Done:  E(RPBE1PBE) =  -809.093462876     A.U. after   11 cycles
 SCF Done:  E(RPBE1PBE) =  -809.093543126     A.U. after   10 cycles
 SCF Done:  E(RPBE1PBE) =  -809.093578729     A.U. after   10 cycles
 SCF Done:  E(RPBE1PBE) =  -809.093593442     A.U. after    9 cycles
 SCF Done:  E(RPBE1PBE) =  -809.093607521     A.U. after    9 cycles
 SCF Done:  E(RPBE1PBE) =  -809.093614486     A.U. after    9 cycles
 SCF Done:  E(RPBE1PBE) =  -809.093616008     A.U. after    7 cycles
 SCF Done:  E(RPBE1PBE) =  -809.093616482     A.U. after    7 cycles
 SCF Done:  E(RPBE1PBE) =  -809.093616707     A.U. after    7 cycles
 Optimization completed.
    -- Stationary point found.
 Normal termination of Gaussian 16 at Wed Feb 24 14:59:41 2021.

 -----------------------------------------------------------------
 #N Geom=AllCheck Guess=TCheck SCRF=Check GenChk RPBE1PBE/SVP Freq
 -----------------------------------------------------------------

 Structure from the checkpoint file:  "499.chk"
 -------
 MODEL 1
 -------
 Charge =  1 Multiplicity = 1

                         Standard orientation:
 ---------------------------------------------------------------------
 Center     Atomic      Atomic             Coordinates (Angstroms)
 Number     Number       Type             X           Y           Z
 ---------------------------------------------------------------------
      1          6           0        3.632870    0.186891    0.756330
      2          6           0        2.502242   -1.907616   -0.079478
      3          6           0       -3.172092   -0.747500    1.316844
      4          6           0       -1.982117   -1.437448   -1.535149
      5          6           0        1.589798    0.407166   -0.740637
      6          6           0        2.816088   -0.438482   -0.367753
      7          6           0        0.570560    0.673921    0.362916
      8          6           0       -0.446249    1.724397   -0.105226
      9          7           0       -0.185132   -0.569443    0.757438
     10          8           0       -0.158020    2.852137   -0.322349
     11          8           0       -1.686609    1.209674   -0.275598
     12         14           0       -1.936663   -0.427980   -0.001559
     13          1           0        4.575523   -0.359982    0.902848
     14          1           0        3.100881    0.160113    1.722782
     15          1           0        3.887610    1.235095    0.539409
     16          1           0        3.421818   -2.510558   -0.091076
     17          1           0        1.830851   -2.351866   -0.835104
     18          1           0        2.077250   -2.063284    0.929606
     19          1           0       -3.015960   -0.100602    2.193286
     20          1           0       -3.166735   -1.802445    1.633479
     21          1           0       -4.178601   -0.530398    0.922782
     22          1           0       -1.949621   -2.515303   -1.309889
     23          1           0       -1.161288   -1.186347   -2.223110
     24          1           0       -2.929326   -1.242116   -2.064285
     25          1           0        1.073399   -0.034486   -1.612046
     26          1           0        1.927004    1.403507   -1.065933
     27          1           0        3.438403   -0.423188   -1.278471
     28          1           0        1.075359    1.075448    1.253568
     29          1           0       -0.249561   -0.638413    1.778602
     30          1           0        0.342626   -1.399821    0.459807
 ---------------------------------------------------------------------

 SCF Done:  E(RPBE1PBE) =  -809.093616707     A.U. after    1 cycles

 The electronic state is 1-A.
 Alpha  occ. eigenvalues --  -66.46925 -19.40398 -19.34960 -14.66097 -10.52047
 Alpha  occ. eigenvalues --  -10.46648 -10.39707 -10.39100 -10.39043 -10.38290
 Alpha  occ. eigenvalues --  -10.37322 -10.35194  -5.55448  -3.89523  -3.89179
 Alpha  occ. eigenvalues --   -3.88850  -1.27347  -1.19638  -1.16028  -0.98677
 Alpha  occ. eigenvalues --   -0.93277  -0.90094  -0.87211  -0.83800  -0.83500
 Alpha  occ. eigenvalues --   -0.78139  -0.76270  -0.74892  -0.72292  -0.68882
 Alpha  occ. eigenvalues --   -0.64578  -0.62901  -0.61170  -0.60933  -0.59971
 Alpha  occ. eigenvalues --   -0.59561  -0.59086  -0.58236  -0.57760  -0.57396
 Alpha  occ. eigenvalues --   -0.55956  -0.55116  -0.53392  -0.52436  -0.52091
 Alpha  occ. eigenvalues --   -0.51525  -0.48679  -0.48610  -0.48014  -0.47318
 Alpha  occ. eigenvalues --   -0.44153
 Alpha virt. eigenvalues --   -0.14257  -0.13906  -0.12415  -0.09959  -0.08151
 Alpha virt. eigenvalues --   -0.07185  -0.05623  -0.04867  -0.04388  -0.02759
 Alpha virt. eigenvalues --   -0.02159  -0.01698  -0.01464  -0.00877  -0.00260

 Mulliken charges:
               1
     1  C   -0.050998
     2  C   -0.093961
     3  C   -0.343839
     4  C   -0.344647
     5  C   -0.033822
     6  C   -0.189143
     7  C   -0.157594
     8  C    0.322734
     9  N   -0.273512
    10  O   -0.134229
    11  O   -0.399130
    12  Si   0.775174
    13  H    0.079303
    14  H    0.037072
    15  H    0.074994
    16  H    0.094325
    17  H    0.057672
    18  H    0.037348
    19  H    0.119385
    20  H    0.121052
    21  H    0.140206
    22  H    0.121047
    23  H    0.114760
    24  H    0.139905
    25  H    0.060100
    26  H    0.108186
    27  H    0.085188
    28  H    0.122187
    29  H    0.216023
    30  H    0.194214
 Sum of Mulliken charges =   1.00000

 Dipole moment (field-independent basis, Debye):
    X=             -1.5112    Y=             -6.2424    Z=              2.2971  Tot=              6.8211
 Quadrupole moment (field-independent basis, Debye-Ang):
   XX=            -51.4415   YY=            -80.7674   ZZ=            -68.7773
   XY=              5.9973   XZ=             -1.9376   YZ=              1.5827

  Exact polarizability: 127.343   6.359 110.768  -1.916   1.325  98.276
 Approx polarizability: 153.134   9.157 157.497  -2.577  -0.998 140.115

                      1                      2                      3
                      A                      A                      A
 Frequencies --     29.0526                38.3872                65.9467
 Red. masses --      3.1588                 3.0702                 4.6915
 Frc consts  --      0.0016                 0.0027                 0.0120
 IR Inten    --      3.3645                 0.4061                 0.7055

                      4                      5                      6
                      A                      A                      A
 Frequencies --    108.1404               130.4408               133.8541
 Red. masses --      2.6571                 2.2030                 1.0801
 Frc consts  --      0.0183                 0.0221                 0.0114
 IR Inten    --      3.8946                 0.9408                 0.6762

                      7                      8                      9
                      A                      A                      A
 Frequencies --    149.2235               187.8201               194.0120
 Red. masses --      1.1670                 2.6152                 2.5222
 Frc consts  --      0.0153                 0.0544                 0.0559
 IR Inten    --      1.7876                 5.9162                 1.2568

                     10                     11                     12
                      A                      A                      A
 Frequencies --    211.7386               219.3306               251.3074
 Red. masses --      3.1941                 2.9815                 1.1614
 Frc consts  --      0.0844                 0.0845                 0.0432
 IR Inten    --      4.0728                 3.6593                 2.8487

                     13                     14                     15
                      A                      A                      A
 Frequencies --    272.2569               313.1593               324.0461
 Red. masses --      3.4777                 1.2763                 1.8663
 Frc consts  --      0.1519                 0.0737                 0.1155
 IR Inten    --      8.3641                 2.2337                 1.0302

                     16                     17                     18
                      A                      A                      A
 Frequencies --    377.8684               399.3860               433.9222
 Red. masses --      2.1288                 2.2635                 3.3371
 Frc consts  --      0.1791                 0.2127                 0.3702
 IR Inten    --      0.7621                 8.0571                 4.3759

                     19                     20                     21
                      A                      A                      A
 Frequencies --    476.9468               550.6321               561.8621
 Red. masses --      4.2254                 4.9819                 2.6456
 Frc consts  --      0.5663                 0.8899                 0.4921
 IR Inten    --      7.1232                 4.0137                 1.4904

                     22                     23                     24
                      A                      A                      A
 Frequencies --    627.7575               675.7930               681.3692
 Red. masses --      3.9756                 2.1793                 1.9664
 Frc consts  --      0.9231                 0.5864                 0.5379
 IR Inten    --      1.2548                13.1828                 3.6650

                     25                     26                     27
                      A                      A                      A
 Frequencies --    716.3445               717.1575               754.0336
 Red. masses --      2.7288                 1.7584                 1.4913
 Frc consts  --      0.8250                 0.5328                 0.4996
 IR Inten    --      9.0837                 5.6146                 1.4495

                     28                     29                     30
                      A                      A                      A
 Frequencies --    782.8731               824.7271               833.2168
 Red. masses --      1.9092                 2.3849                 2.2247
 Frc consts  --      0.6894                 0.9558                 0.9100
 IR Inten    --     15.8368                34.3118                17.7583

                     31                     32                     33
                      A                      A                      A
 Frequencies --    853.0004               872.5412               900.2244
 Red. masses --      1.7523                 2.7213                 2.4176
 Frc consts  --      0.7512                 1.2207                 1.1544
 IR Inten    --     67.7805               121.7394                38.5777

                     34                     35                     36
                      A                      A                      A
 Frequencies --    925.6091               953.1531               982.0359
 Red. masses --      1.2409                 1.6027                 1.8264
 Frc consts  --      0.6264                 0.8579                 1.0378
 IR Inten    --     14.2450                25.2487                15.5638

                     37                     38                     39
                      A                      A                      A
 Frequencies --    988.2138              1010.0859              1042.3108
 Red. masses --      3.4513                 2.8720                 1.9223
 Frc consts  --      1.9858                 1.7264                 1.2305
 IR Inten    --    139.1477                24.4913                17.8685

                     40                     41                     42
                      A                      A                      A
 Frequencies --   1105.1812              1123.8540              1182.3747
 Red. masses --      1.3561                 2.0145                 1.5301
 Frc consts  --      0.9759                 1.4991                 1.2603
 IR Inten    --      7.3772                 4.6714               538.1288

                     43                     44                     45
                      A                      A                      A
 Frequencies --   1202.8959              1215.6259              1229.5127
 Red. masses --      1.5312                 1.6375                 2.1636
 Frc consts  --      1.3054                 1.4257                 1.9270
 IR Inten    --      2.9571                 7.9070               132.5600

                     46                     47                     48
                      A                      A                      A
 Frequencies --   1272.1718              1285.7006              1288.2881
 Red. masses --      1.6335                 1.2935                 1.2560
 Frc consts  --      1.5576                 1.2598                 1.2281
 IR Inten    --     19.3249                67.1787                52.9901

                     49                     50                     51
                      A                      A                      A
 Frequencies --   1294.2587              1348.1400              1358.4483
 Red. masses --      1.2994                 1.4029                 1.6521
 Frc consts  --      1.2824                 1.5023                 1.7963
 IR Inten    --     21.6969                 1.4051                12.3946

                     52                     53                     54
                      A                      A                      A
 Frequencies --   1362.0676              1388.4745              1394.9431
 Red. masses --      1.2718                 1.4139                 1.4434
 Frc consts  --      1.3901                 1.6060                 1.6549
 IR Inten    --      1.0562                 1.0006                12.4565

                     55                     56                     57
                      A                      A                      A
 Frequencies --   1402.2983              1409.9244              1413.9272
 Red. masses --      1.0506                 1.0566                 1.3185
 Frc consts  --      1.2172                 1.2376                 1.5530
 IR Inten    --      0.1180                 2.3868                16.3233

                     58                     59                     60
                      A                      A                      A
 Frequencies --   1416.2995              1421.5711              1446.0730
 Red. masses --      1.0484                 1.0436                 1.0858
 Frc consts  --      1.2390                 1.2426                 1.3378
 IR Inten    --      6.6879                15.6989                10.8231

                     61                     62                     63
                      A                      A                      A
 Frequencies --   1455.5317              1474.0129              1478.5138
 Red. masses --      1.0383                 1.0653                 1.0584
 Frc consts  --      1.2960                 1.3637                 1.3632
 IR Inten    --      3.2437                 5.3177                22.5799

                     64                     65                     66
                      A                      A                      A
 Frequencies --   1494.7080              1602.4502              1965.6565
 Red. masses --      1.0586                 1.0749                13.0032
 Frc consts  --      1.3935                 1.6263                29.6017
 IR Inten    --     17.6071                34.9248               369.2535

                     67                     68                     69
                      A                      A                      A
 Frequencies --   3020.6756              3049.8318              3056.4192
 Red. masses --      1.0435                 1.0441                 1.0657
 Frc consts  --      5.6101                 5.7221                 5.8653
 IR Inten    --     31.0279                15.2069                13.6097

                     70                     71                     72
                      A                      A                      A
 Frequencies --   3060.8481              3062.5160              3078.0264
 Red. masses --      1.0377                 1.0378                 1.0856
 Frc consts  --      5.7281                 5.7346                 6.0599
 IR Inten    --      9.6606                 8.3107                 1.7968

                     73                     74                     75
                      A                      A                      A
 Frequencies --   3107.9498              3131.4880              3138.7635
 Red. masses --      1.1016                 1.0928                 1.0950
 Frc consts  --      6.2694                 6.3139                 6.3560
 IR Inten    --     19.5039                 3.1510                 0.3880

                     76                     77                     78
                      A                      A                      A
 Frequencies --   3140.9573              3153.1225              3162.0251
 Red. masses --      1.0982                 1.0974                 1.1010
 Frc consts  --      6.3833                 6.4283                 6.4859
 IR Inten    --     15.0633                 4.3158                 0.0678

                     79                     80                     81
                      A                      A                      A
 Frequencies --   3163.4485              3168.0571              3178.2280
 Red. masses --      1.1009                 1.1045                 1.1042
 Frc consts  --      6.4911                 6.5313                 6.5713
 IR Inten    --     12.4872                 3.2582                 2.3087

                     82                     83                     84
                      A                      A                      A
 Frequencies --   3178.9881              3441.4357              3519.1020
 Red. masses --      1.1038                 1.0591                 1.0882
 Frc consts  --      6.5722                 7.3905                 7.9399
 IR Inten    --      1.8788               172.5199               100.7517

 - Thermochemistry -
 -------------------
 Temperature   298.150 Kelvin.  Pressure   1.00000 Atm.
 Atom     1 has atomic number  6 and mass  12.00000

 Molecular mass:   188.11068 amu.
 Principal axes and moments of inertia in atomic units:
                           1         2         3
     Eigenvalues --  1542.989333323.607754064.97104
           X            0.99993   0.01187   0.00043
           Y           -0.01187   0.99972   0.02041
           Z           -0.00018  -0.02041   0.99979
 This molecule is an asymmetric top.
 Rotational symmetry number  1.
 Warning -- assumption of classical behavior for rotation
           may cause significant error
 Rotational temperatures (Kelvin)      0.05613     0.02606     0.02131
 Rotational constants (GHZ):           1.16964     0.54301     0.44397
 Zero-point vibrational energy     684351.1 (Joules/Mol)
                                  163.56384 (Kcal/Mol)
 Warning -- explicit consideration of  21 degrees of freedom as
           vibrations may cause significant error
 Vibrational temperatures:     41.80    55.23    94.88   155.59   187.68
          (Kelvin)            192.59   214.70   270.23   279.14   304.64
                              315.57   361.58   391.72   450.57   466.23
                              543.67   574.63   624.32   686.22   792.24
                              808.39   903.20   972.32   980.34  1030.66
                             1031.83  1084.89  1126.38  1186.60  1198.81
                             1227.28  1255.39  1295.22  1331.75  1371.37
                             1412.93  1421.82  1453.29  1499.65  1590.11
                             1616.98  1701.17  1730.70  1749.01  1768.99
                             1830.37  1849.84  1853.56  1862.15  1939.67
                             1954.50  1959.71  1997.71  2007.01  2017.59
                             2028.57  2034.33  2037.74  2045.32  2080.58
                             2094.19  2120.78  2127.25  2150.55  2305.57
                             2828.14  4346.08  4388.03  4397.51  4403.88
                             4406.28  4428.59  4471.65  4505.51  4515.98
                             4519.14  4536.64  4549.45  4551.50  4558.13
                             4572.76  4573.85  4951.46  5063.20

 Zero-point correction=                           0.260656 (Hartree/Particle)
 Thermal correction to Energy=                    0.275838
 Thermal correction to Enthalpy=                  0.276782
 Thermal correction to Gibbs Free Energy=         0.218078
 Sum of electronic and zero-point Energies=           -808.832961
 Sum of electronic and thermal Energies=              -808.817779
 Sum of electronic and thermal Enthalpies=            -808.816835
 Sum of electronic and thermal Free Energies=         -808.875538

                     E (Thermal)             CV                S
                      KCal/Mol        Cal/Mol-Kelvin    Cal/Mol-Kelvin
 Total                  173.091             56.078            123.552
 Electronic               0.000              0.000              0.000
 Translational            0.889              2.981             41.601
 Rotational               0.889              2.981             31.411
 Vibrational            171.313             50.117             50.539
 Vibration     1          0.593              1.984              5.893
 Vibration     2          0.594              1.982              5.341
 Vibration     3          0.597              1.971              4.271
 Vibration     4          0.606              1.943              3.302
 Vibration     5          0.612              1.923              2.940
 Vibration     6          0.613              1.920              2.890
 Vibration     7          0.618              1.904              2.682
 Vibration     8          0.633              1.857              2.249
 Vibration     9          0.635              1.848              2.189
 Vibration    10          0.643              1.823              2.029
 Vibration    11          0.647              1.812              1.965
 Vibration    12          0.663              1.761              1.721
 Vibration    13          0.675              1.724              1.582
 Vibration    14          0.701              1.649              1.346
 Vibration    15          0.709              1.627              1.290
 Vibration    16          0.748              1.517              1.048
 Vibration    17          0.765              1.471              0.965
 Vibration    18          0.795              1.396              0.846
 Vibration    19          0.834              1.301              0.718
 Vibration    20          0.906              1.138              0.543
 Vibration    21          0.918              1.114              0.520

                           ! Non-Optimized Parameters !
 Normal termination of Gaussian 16 at Wed Feb 24 15:04:49 2021.
