 Gaussian 16, Revision A.03,
 Gaussian 16:  ES64L-G16RevA.03 25-Dec-2016

 ---------------------------------------------------------
 # freq=hpmodes em=gd3bj int=ultrafine pbe1pbe scf=xqc svp
 ---------------------------------------------------------

 -------------------
 Title Card Required
 -------------------
 Symbolic Z-matrix:
 Charge =  1 Multiplicity = 2

                         Standard orientation:
 ---------------------------------------------------------------------
 Center     Atomic      Atomic             Coordinates (Angstroms)
 Number     Number       Type             X           Y           Z
 ---------------------------------------------------------------------
      1          6           0       -2.344917   -1.671928    1.126497
      2          6           0       -3.519737   -1.361654   -1.021082
      3          6           0        2.051624   -2.006231   -1.127342
      4          6           0        3.488779    0.684156   -0.337413
      5          6           0        1.958869   -0.927979    1.997214
      6          6           0       -2.384067    0.722968   -0.008402
      7          6           0       -2.365192   -0.865193   -0.201602
      8          6           0       -1.066248    1.238067    0.520883
      9          6           0       -0.013616    1.127454   -0.565377
     10          7           0       -1.181316    2.666099    0.988741
     11          8           0        0.194539    1.940487   -1.421928
     12          8           0        0.774025    0.118613   -0.345997
     13         14           0        2.176347   -0.546087    0.055774
     14          1           0       -3.185978   -1.224936    1.652272
     15          1           0       -1.376697   -1.337009    1.592418
     16          1           0       -2.414379   -2.756953    1.173664
     17          1           0       -4.494390   -1.274674   -0.539483
     18          1           0       -3.320561   -2.506723   -1.039146
     19          1           0       -3.645114   -0.811962   -1.922229
     20          1           0        1.851849   -1.635676   -2.227951
     21          1           0        1.104733   -2.517449   -0.845420
     22          1           0        2.808842   -2.768575   -1.169376
     23          1           0        3.258730    1.549574   -1.050534
     24          1           0        4.006748    0.120495   -1.018750
     25          1           0        4.113037    1.078165    0.504536
     26          1           0        2.868412   -1.216931    2.598001
     27          1           0        1.344038   -1.785466    1.935125
     28          1           0        1.551572   -0.048125    2.510360
     29          1           0       -3.173956    1.105505    0.632223
     30          1           0       -2.573125    1.056992   -1.086760
     31          1           0       -1.445755   -1.037762   -0.688706
     32          1           0       -0.569915    0.623992    1.282830
     33          1           0       -1.059017    3.246028    0.215257
     34          1           0       -0.430202    3.013262    1.632796
 ---------------------------------------------------------------------

 SCF Done:  E(UPBE1PBE) =  -848.740668219     A.U. after   22 cycles

 The electronic state is 2-A.
 Alpha  occ. eigenvalues --  -66.41714 -19.41726 -19.38359 -14.65389 -10.55434
 Alpha  occ. eigenvalues --  -10.48112 -10.40640 -10.37772 -10.36791 -10.35684
 Alpha  occ. eigenvalues --  -10.35008 -10.34594 -10.34125  -5.50320  -3.84483
 Alpha  occ. eigenvalues --   -3.83921  -3.83775  -1.30935  -1.21800  -1.14490
 Alpha  occ. eigenvalues --   -0.99276  -0.93506  -0.88982  -0.84535  -0.83868
 Alpha  occ. eigenvalues --   -0.82679  -0.81803  -0.80327  -0.74818  -0.73736
 Alpha  occ. eigenvalues --   -0.69712  -0.67497  -0.67102  -0.63554  -0.60947
 Alpha  occ. eigenvalues --   -0.59748  -0.58869  -0.58626  -0.57612  -0.57019
 Alpha  occ. eigenvalues --   -0.56274  -0.55742  -0.54413  -0.54041  -0.53070
 Alpha  occ. eigenvalues --   -0.52159  -0.52087  -0.51193  -0.50433  -0.50216
 Alpha  occ. eigenvalues --   -0.48355  -0.47404  -0.46650  -0.45931  -0.44604
 Alpha  occ. eigenvalues --   -0.44207
 Alpha virt. eigenvalues --   -0.17524  -0.11546  -0.09283  -0.07455  -0.06582
 Alpha virt. eigenvalues --   -0.04195  -0.03827  -0.02952  -0.01947  -0.01768
 Alpha virt. eigenvalues --   -0.01198  -0.00302  -0.00108   0.00117   0.00851

  Beta  occ. eigenvalues --  -66.41712 -19.41397 -19.38144 -14.64157 -10.55301
  Beta  occ. eigenvalues --  -10.47979 -10.40551 -10.37753 -10.36665 -10.35631
  Beta  occ. eigenvalues --  -10.35007 -10.34528 -10.34106  -5.50320  -3.84479
  Beta  occ. eigenvalues --   -3.83894  -3.83782  -1.30363  -1.21186  -1.12346
  Beta  occ. eigenvalues --   -0.98516  -0.92924  -0.88614  -0.84020  -0.83567
  Beta  occ. eigenvalues --   -0.82414  -0.81717  -0.79940  -0.73825  -0.73212
  Beta  occ. eigenvalues --   -0.69218  -0.67105  -0.66432  -0.62995  -0.60592
  Beta  occ. eigenvalues --   -0.59141  -0.58447  -0.58025  -0.56996  -0.56773
  Beta  occ. eigenvalues --   -0.55943  -0.54974  -0.53958  -0.52993  -0.52148
  Beta  occ. eigenvalues --   -0.52015  -0.51328  -0.50296  -0.49951  -0.48279
  Beta  occ. eigenvalues --   -0.46938  -0.46653  -0.45468  -0.44539  -0.43107
  Beta virt. eigenvalues --   -0.38389  -0.17024  -0.11192  -0.09164  -0.07300
  Beta virt. eigenvalues --   -0.06429  -0.04141  -0.03650  -0.02834  -0.01675
  Beta virt. eigenvalues --   -0.01547  -0.01063  -0.00109   0.00160   0.00236

 Mulliken charges and spin densities:
               1          2
     1  C   -0.054550   0.000194
     2  C   -0.010786   0.009697
     3  C   -0.365761   0.028865
     4  C   -0.338723   0.035226
     5  C   -0.365542   0.078409
     6  C   -0.021816   0.043631
     7  C   -0.245990   0.008669
     8  C   -0.085363   0.021034
     9  C    0.272956   0.040525
    10  N   -0.005037   0.549131
    11  O   -0.154831   0.081743
    12  O   -0.355654   0.098844
    13  Si   0.702745  -0.000183
    14  H    0.059978   0.000853
    15  H    0.026813   0.000625
    16  H    0.087005   0.000466
    17  H    0.057632   0.000802
    18  H    0.085642   0.006810
    19  H    0.051419  -0.000143
    20  H    0.121810   0.000039
    21  H    0.092832  -0.001385
    22  H    0.109691   0.002568
    23  H    0.113520  -0.001967
    24  H    0.083818   0.006035
    25  H    0.119015  -0.001316
    26  H    0.124014  -0.001373
    27  H    0.101915   0.001106
    28  H    0.090092  -0.000537
    29  H    0.092699   0.007172
    30  H    0.101964  -0.001826
    31  H    0.044534   0.000096
    32  H    0.104270   0.000915
    33  H    0.163941  -0.008024
    34  H    0.195746  -0.006701
 Sum of Mulliken charges =   1.00000   1.00000

 Dipole moment (field-independent basis, Debye):
    X=              0.1813    Y=              2.6313    Z=              2.9858  Tot=              3.9839
 Quadrupole moment (field-independent basis, Debye-Ang):
   XX=            -60.4472   YY=            -64.3779   ZZ=            -81.6052
   XY=             -4.8470   XZ=              1.1541   YZ=              8.1684

  Exact polarizability: 326.254 -69.521 223.401  12.642   8.355 143.447
 Approx polarizability: 422.748-165.064 375.477 -11.172  18.351 209.964

 ******    9 imaginary frequencies (negative Signs) ******

                      1                      2                      3
                      A                      A                      A
 Frequencies --   -667.2679              -621.7664              -393.8951
 Red. masses --      1.1211                 1.0231                 1.1700
 Frc consts  --      0.2941                 0.2330                 0.1070
 IR Inten    --    854.1388                 8.3005               346.4842

                      4                      5                      6
                      A                      A                      A
 Frequencies --   -367.1805              -206.1959              -135.4736
 Red. masses --      1.0716                 1.7924                 2.2508
 Frc consts  --      0.0851                 0.0449                 0.0243
 IR Inten    --     93.0647                 0.6935                89.6392

                      7                      8                      9
                      A                      A                      A
 Frequencies --   -130.5450              -127.7953               -58.7873
 Red. masses --      5.9694                 5.9873                 2.8760
 Frc consts  --      0.0599                 0.0576                 0.0059
 IR Inten    --     15.1215                25.9084                13.6620

                     10                     11                     12
                      A                      A                      A
 Frequencies --     39.5230                88.3846               134.6295
 Red. masses --      3.7067                 2.9130                 1.3777
 Frc consts  --      0.0034                 0.0134                 0.0147
 IR Inten    --     14.2857                 4.6283                 4.5394

                     13                     14                     15
                      A                      A                      A
 Frequencies --    160.9690               167.5901               184.1377
 Red. masses --      1.8502                 1.3100                 2.2650
 Frc consts  --      0.0282                 0.0217                 0.0452
 IR Inten    --     24.6742                 2.9324                 9.1389

                     16                     17                     18
                      A                      A                      A
 Frequencies --    224.2094               231.3620               236.9808
 Red. masses --      2.5570                 2.8302                 3.0109
 Frc consts  --      0.0757                 0.0893                 0.0996
 IR Inten    --     29.9781                32.5333                 9.3550

                     19                     20                     21
                      A                      A                      A
 Frequencies --    268.6912               294.1754               305.8001
 Red. masses --      3.3221                 1.6748                 4.1203
 Frc consts  --      0.1413                 0.0854                 0.2270
 IR Inten    --      4.6767                 4.5655               454.4170

                     22                     23                     24
                      A                      A                      A
 Frequencies --    331.1444               372.9835               386.6411
 Red. masses --      2.9620                 2.7725                 2.3810
 Frc consts  --      0.1914                 0.2273                 0.2097
 IR Inten    --    247.1943                 4.0315               170.3721

                     25                     26                     27
                      A                      A                      A
 Frequencies --    440.2928               442.5406               473.3641
 Red. masses --      2.2817                 2.9326                 2.8932
 Frc consts  --      0.2606                 0.3384                 0.3820
 IR Inten    --      6.1503                 6.9329                22.8496

                     28                     29                     30
                      A                      A                      A
 Frequencies --    588.6812               624.2449               662.4546
 Red. masses --      3.2356                 1.9721                 2.6770
 Frc consts  --      0.6606                 0.4528                 0.6922
 IR Inten    --     92.8045                14.6576                 1.3376

                     31                     32                     33
                      A                      A                      A
 Frequencies --    689.3356               716.0716               727.1363
 Red. masses --      2.4980                 1.3220                 2.5208
 Frc consts  --      0.6994                 0.3994                 0.7853
 IR Inten    --     76.3847                14.7483               142.7405

                     34                     35                     36
                      A                      A                      A
 Frequencies --    741.6530               754.0752               771.5344
 Red. masses --      4.1549                 3.2898                 2.9378
 Frc consts  --      1.3465                 1.1022                 1.0303
 IR Inten    --     47.0363                12.7031                77.0191

                     37                     38                     39
                      A                      A                      A
 Frequencies --    789.3994               829.1821               834.4526
 Red. masses --      1.6935                 1.3048                 1.3390
 Frc consts  --      0.6218                 0.5285                 0.5493
 IR Inten    --    484.8638                12.4380                25.0531

                     40                     41                     42
                      A                      A                      A
 Frequencies --    844.0598               880.8670               899.8737
 Red. masses --      1.5735                 1.3245                 1.4625
 Frc consts  --      0.6605                 0.6055                 0.6978
 IR Inten    --    229.5981               507.0345               571.2973

                     43                     44                     45
                      A                      A                      A
 Frequencies --    910.7759               969.4661               983.9302
 Red. masses --      2.0447                 1.5764                 3.1257
 Frc consts  --      0.9993                 0.8729                 1.7829
 IR Inten    --    128.1598                78.7526               152.0833

                     46                     47                     48
                      A                      A                      A
 Frequencies --   1031.4561              1069.5304              1086.8549
 Red. masses --      3.0140                 1.8192                 1.4672
 Frc consts  --      1.8893                 1.2261                 1.0211
 IR Inten    --    129.2948                76.0814               344.0521

                     49                     50                     51
                      A                      A                      A
 Frequencies --   1125.9207              1139.0159              1153.5481
 Red. masses --      1.7894                 1.4074                 1.6268
 Frc consts  --      1.3365                 1.0758                 1.2755
 IR Inten    --    140.4861                65.1551                22.7807

                     52                     53                     54
                      A                      A                      A
 Frequencies --   1197.9237              1222.1276              1238.5603
 Red. masses --      1.5379                 1.2046                 1.5185
 Frc consts  --      1.3003                 1.0601                 1.3724
 IR Inten    --     12.2992                38.0904                12.0891

                     55                     56                     57
                      A                      A                      A
 Frequencies --   1261.1361              1271.8165              1309.5215
 Red. masses --      1.3731                 1.4848                 1.3685
 Frc consts  --      1.2867                 1.4151                 1.3827
 IR Inten    --     19.5145                52.3852                 8.1777

                     58                     59                     60
                      A                      A                      A
 Frequencies --   1317.2246              1318.9645              1333.4869
 Red. masses --      1.1673                 1.1665                 1.0576
 Frc consts  --      1.1934                 1.1957                 1.1080
 IR Inten    --     28.6575                21.2475                 4.7394

                     61                     62                     63
                      A                      A                      A
 Frequencies --   1350.0711              1356.1389              1364.5842
 Red. masses --      2.1809                 1.2246                 1.3078
 Frc consts  --      2.3420                 1.3270                 1.4348
 IR Inten    --     13.6864                11.3908                 9.9137

                     64                     65                     66
                      A                      A                      A
 Frequencies --   1397.9440              1406.8808              1413.0492
 Red. masses --      1.1788                 1.1688                 1.0518
 Frc consts  --      1.3573                 1.3630                 1.2373
 IR Inten    --     66.8165                63.7052                 9.7664

                     67                     68                     69
                      A                      A                      A
 Frequencies --   1448.5874              1452.3233              1454.7506
 Red. masses --      1.0623                 1.0610                 1.0690
 Frc consts  --      1.3133                 1.3186                 1.3330
 IR Inten    --     12.8576                12.4750                 7.0090

                     70                     71                     72
                      A                      A                      A
 Frequencies --   1464.5629              1473.3601              1479.1091
 Red. masses --      1.0587                 1.0918                 1.0577
 Frc consts  --      1.3379                 1.3964                 1.3634
 IR Inten    --      4.3099                 3.1500                 9.3815

                     73                     74                     75
                      A                      A                      A
 Frequencies --   1494.6196              1572.7830              1849.5672
 Red. masses --      1.0468                 1.0922                12.0479
 Frc consts  --      1.3778                 1.5919                24.2830
 IR Inten    --      9.5739                86.6523               188.5491

                     76                     77                     78
                      A                      A                      A
 Frequencies --   2490.5950              2585.9127              2729.9290
 Red. masses --      1.0716                 1.0690                 1.0782
 Frc consts  --      3.9165                 4.2116                 4.7344
 IR Inten    --      0.1411                 8.4283                12.1338

                     79                     80                     81
                      A                      A                      A
 Frequencies --   2758.0892              2876.4143              2905.2249
 Red. masses --      1.0701                 1.0654                 1.0698
 Frc consts  --      4.7963                 5.1934                 5.3200
 IR Inten    --      2.9593                15.8865                 0.7442

                     82                     83                     84
                      A                      A                      A
 Frequencies --   2974.3382              3023.1782              3154.3400
 Red. masses --      1.0822                 1.0758                 1.0873
 Frc consts  --      5.6408                 5.7933                 6.3743
 IR Inten    --      2.5294                 2.3543                 2.8763

                     85                     86                     87
                      A                      A                      A
 Frequencies --   3162.8853              3210.1996              3211.1753
 Red. masses --      1.0740                 1.0722                 1.0744
 Frc consts  --      6.3302                 6.5102                 6.5278
 IR Inten    --      8.1355                 0.0889                 6.4850

                     88                     89                     90
                      A                      A                      A
 Frequencies --   3263.0868              3277.2582              3290.6108
 Red. masses --      1.0882                 1.0714                 1.1087
 Frc consts  --      6.8267                 6.7799                 7.0730
 IR Inten    --      0.2284               240.2161                 1.7987

                     91                     92                     93
                      A                      A                      A
 Frequencies --   3390.4588              3488.0650              3536.6057
 Red. masses --      1.0883                 1.0893                 1.0861
 Frc consts  --      7.3711                 7.8086                 8.0040
 IR Inten    --      4.2949                11.2123                 6.8132

                     94                     95                     96
                      A                      A                      A
 Frequencies --   3564.0248              3873.0028              4131.2562
 Red. masses --      1.0932                 1.0839                 1.0759
 Frc consts  --      8.1811                 9.5791                10.8187
 IR Inten    --      1.8589                65.0689               218.0528

 - Thermochemistry -
 -------------------
 Temperature   298.150 Kelvin.  Pressure   1.00000 Atm.
 Atom     1 has atomic number  6 and mass  12.00000

 Molecular mass:   203.13416 amu.
 Principal axes and moments of inertia in atomic units:
                           1         2         3
     Eigenvalues --  2133.567903976.286214736.20547
           X            0.99980   0.01949   0.00414
           Y           -0.01959   0.99953   0.02353
           Z           -0.00368  -0.02360   0.99971
 This molecule is an asymmetric top.
 Rotational symmetry number  1.
 Warning -- assumption of classical behavior for rotation
           may cause significant error
 Rotational temperatures (Kelvin)      0.04060     0.02178     0.01829
 Rotational constants (GHZ):           0.84588     0.45388     0.38105
    9 imaginary frequencies ignored.
 Zero-point vibrational energy     753364.3 (Joules/Mol)
                                  180.05840 (Kcal/Mol)
 Warning -- explicit consideration of  19 degrees of freedom as
           vibrations may cause significant error
 Vibrational temperatures:     56.86   127.17   193.70   231.60   241.12
          (Kelvin)            264.93   322.59   332.88   340.96   386.59
                              423.25   439.98   476.44   536.64   556.29
                              633.48   636.72   681.07   846.98   898.15
                              953.12   991.80  1030.27  1046.19  1067.07
                             1084.95  1110.07  1135.77  1193.01  1200.59
                             1214.41  1267.37  1294.72  1310.40  1394.85
                             1415.66  1484.04  1538.82  1563.74  1619.95
                             1638.79  1659.70  1723.55  1758.37  1782.01
                             1814.49  1829.86  1884.11  1895.19  1897.70
                             1918.59  1942.45  1951.18  1963.33  2011.33
                             2024.19  2033.06  2084.19  2089.57  2093.06
                             2107.18  2119.84  2128.11  2150.42  2262.88
                             2661.11  3583.41  3720.55  3927.76  3968.28
                             4138.52  4179.97  4279.41  4349.68  4538.39
                             4550.69  4618.76  4620.17  4694.85  4715.24
                             4734.46  4878.11  5018.55  5088.39  5127.84
                             5572.39  5943.96

 Zero-point correction=                           0.286941 (Hartree/Particle)
 Thermal correction to Energy=                    0.300488
 Thermal correction to Enthalpy=                  0.301432
 Thermal correction to Gibbs Free Energy=         0.246649
 Sum of electronic and zero-point Energies=           -848.453727
 Sum of electronic and thermal Energies=              -848.440180
 Sum of electronic and thermal Enthalpies=            -848.439236
 Sum of electronic and thermal Free Energies=         -848.494020

                     E (Thermal)             CV                S
                      KCal/Mol        Cal/Mol-Kelvin    Cal/Mol-Kelvin
 Total                  188.559             53.438            115.302
 Electronic               0.000              0.000              1.377
 Translational            0.889              2.981             41.830
 Rotational               0.889              2.981             32.063
 Vibrational            186.782             47.476             40.031
 Vibration     1          0.594              1.981              5.283
 Vibration     2          0.601              1.957              3.696
 Vibration     3          0.613              1.919              2.879
 Vibration     4          0.622              1.890              2.538
 Vibration     5          0.624              1.882              2.462
 Vibration     6          0.631              1.861              2.286
 Vibration     7          0.649              1.804              1.925
 Vibration     8          0.653              1.793              1.868
 Vibration     9          0.656              1.784              1.825
 Vibration    10          0.673              1.731              1.605
 Vibration    11          0.689              1.685              1.450
 Vibration    12          0.696              1.663              1.385
 Vibration    13          0.714              1.613              1.254
 Vibration    14          0.744              1.528              1.067
 Vibration    15          0.755              1.499              1.013
 Vibration    16          0.800              1.382              0.826
 Vibration    17          0.802              1.377              0.819
 Vibration    18          0.830              1.309              0.728
 Vibration    19          0.946              1.056              0.470

 Normal termination of Gaussian 16 at Wed Feb 24 21:36:08 2021.
