 Gaussian 16, Revision A.03,
 Gaussian 16:  ES64L-G16RevA.03 25-Dec-2016

 ---------------------------------------------------------
 # freq=hpmodes em=gd3bj int=ultrafine pbe1pbe scf=xqc svp
 ---------------------------------------------------------

 -------------------
 Title Card Required
 -------------------
 Symbolic Z-matrix:
 Charge =  1 Multiplicity = 1

                         Standard orientation:
 ---------------------------------------------------------------------
 Center     Atomic      Atomic             Coordinates (Angstroms)
 Number     Number       Type             X           Y           Z
 ---------------------------------------------------------------------
      1          6           0        2.386586   -1.455372   -1.310535
      2          6           0        3.338932   -1.389029    0.964812
      3          6           0       -2.170392   -2.300867    0.433086
      4          6           0       -3.686666    0.402713   -0.131848
      5          6           0        2.178830    0.759882    0.129791
      6          6           0        2.236907   -0.838897    0.108138
      7          6           0        0.886786    1.280940   -0.454364
      8          6           0       -0.252571    0.973081    0.498169
      9          7           0        0.959048    2.763542   -0.715281
     10          8           0       -0.586439    1.650000    1.430018
     11          8           0       -0.955305   -0.031580    0.070283
     12         14           0       -2.272797   -0.699292   -0.552718
     13          1           0        3.244210   -0.901636   -1.686676
     14          1           0        1.446961   -1.105018   -1.821474
     15          1           0        2.524557   -2.519176   -1.493877
     16          1           0        4.346731   -1.191342    0.597776
     17          1           0        3.207469   -2.533723    0.811277
     18          1           0        3.348185   -0.963258    1.938763
     19          1           0       -2.094815   -2.076302    1.587392
     20          1           0       -1.172886   -2.723794    0.181013
     21          1           0       -2.881536   -3.096179    0.298673
     22          1           0       -3.574923    1.171598    0.708832
     23          1           0       -4.230456   -0.272802    0.414226
     24          1           0       -4.253425    0.879266   -0.971790
     25          1           0        2.999960    1.263260   -0.373218
     26          1           0        2.247970    0.950865    1.256253
     27          1           0        1.288584   -1.119451    0.474729
     28          1           0        0.499868    0.755048   -1.336254
     29          1           0        0.732018    3.225251    0.112267
     30          1           0        0.250835    3.160621   -1.378804
 ---------------------------------------------------------------------

 SCF Done:  E(RPBE1PBE) =  -808.882369340     A.U. after   20 cycles

 The electronic state is 1-A.
 Alpha  occ. eigenvalues --  -66.52501 -19.45194 -19.36076 -14.51552 -10.52367
 Alpha  occ. eigenvalues --  -10.42743 -10.42291 -10.41522 -10.35884 -10.35217
 Alpha  occ. eigenvalues --  -10.33411 -10.32064  -5.61036  -3.95070  -3.94831
 Alpha  occ. eigenvalues --   -3.94274  -1.31745  -1.20690  -1.03957  -0.95066
 Alpha  occ. eigenvalues --   -0.93736  -0.90195  -0.88597  -0.85105  -0.80052
 Alpha  occ. eigenvalues --   -0.77796  -0.70279  -0.68130  -0.67096  -0.65871
 Alpha  occ. eigenvalues --   -0.64320  -0.62698  -0.62004  -0.59820  -0.59603
 Alpha  occ. eigenvalues --   -0.58656  -0.57771  -0.57165  -0.56096  -0.55430
 Alpha  occ. eigenvalues --   -0.54361  -0.52840  -0.52108  -0.50291  -0.49380
 Alpha  occ. eigenvalues --   -0.48235  -0.46074  -0.44987  -0.43959  -0.42491
 Alpha  occ. eigenvalues --   -0.38914
 Alpha virt. eigenvalues --   -0.33900  -0.16482  -0.14189  -0.10759  -0.09670
 Alpha virt. eigenvalues --   -0.05766  -0.05144  -0.04783  -0.03370  -0.02377
 Alpha virt. eigenvalues --   -0.02172  -0.01074  -0.00405   0.00839   0.01711

 Mulliken charges:
               1
     1  C   -0.045260
     2  C   -0.007517
     3  C   -0.380505
     4  C   -0.340712
     5  C    0.006489
     6  C   -0.243160
     7  C   -0.058517
     8  C    0.241799
     9  N   -0.166549
    10  O   -0.175807
    11  O   -0.335832
    12  Si   0.843103
    13  H    0.065002
    14  H    0.001210
    15  H    0.072425
    16  H    0.053429
    17  H    0.063207
    18  H    0.044858
    19  H    0.183863
    20  H    0.138761
    21  H    0.137422
    22  H    0.174982
    23  H    0.109633
    24  H    0.159705
    25  H    0.078528
    26  H    0.079150
    27  H    0.007224
    28  H    0.038397
    29  H    0.121996
    30  H    0.132676
 Sum of Mulliken charges =   1.00000

 Dipole moment (field-independent basis, Debye):
    X=             -8.8775    Y=             -2.8965    Z=             -2.8795  Tot=              9.7719
 Quadrupole moment (field-independent basis, Debye-Ang):
   XX=            -42.2895   YY=            -65.6708   ZZ=            -75.5697
   XY=              4.2903   XZ=              6.1850   YZ=             -2.5910

  Exact polarizability: 204.033  49.318 171.088   5.065   1.202 103.475
 Approx polarizability: 326.593 151.169 317.976  20.905  24.890 165.654

 ******    8 imaginary frequencies (negative Signs) ******

                      1                      2                      3
                      A                      A                      A
 Frequencies --   -662.3143              -593.6266              -326.3138
 Red. masses --      1.0272                 1.0745                 1.3868
 Frc consts  --      0.2655                 0.2231                 0.0870
 IR Inten    --      2.2275               184.3280                 2.3299

                      4                      5                      6
                      A                      A                      A
 Frequencies --   -204.8260              -142.0547               -85.7996
 Red. masses --      1.8127                 6.3623                 5.3974
 Frc consts  --      0.0448                 0.0756                 0.0234
 IR Inten    --      1.5957                15.2649                21.4248

                      7                      8                      9
                      A                      A                      A
 Frequencies --    -48.8608               -28.2311                97.0013
 Red. masses --      2.5920                 3.0393                 2.4100
 Frc consts  --      0.0036                 0.0014                 0.0134
 IR Inten    --      2.6207                 2.8280                 2.9688

                     10                     11                     12
                      A                      A                      A
 Frequencies --    109.2621               145.4128               163.2593
 Red. masses --      1.8238                 2.0877                 1.9363
 Frc consts  --      0.0128                 0.0260                 0.0304
 IR Inten    --      0.8626                27.6496                13.4710

                     13                     14                     15
                      A                      A                      A
 Frequencies --    174.2679               218.0628               240.2367
 Red. masses --      1.3958                 3.2591                 3.1569
 Frc consts  --      0.0250                 0.0913                 0.1073
 IR Inten    --      0.7069                68.9863                 7.6516

                     16                     17                     18
                      A                      A                      A
 Frequencies --    266.5998               309.2349               336.0853
 Red. masses --      3.2547                 2.3943                 2.7070
 Frc consts  --      0.1363                 0.1349                 0.1802
 IR Inten    --      8.6601                 6.7296                 2.3784

                     19                     20                     21
                      A                      A                      A
 Frequencies --    384.2923               396.9328               440.5024
 Red. masses --      2.2001                 2.8708                 2.2324
 Frc consts  --      0.1914                 0.2665                 0.2552
 IR Inten    --      2.3171                14.3540                 2.1722

                     22                     23                     24
                      A                      A                      A
 Frequencies --    491.1844               508.6084               596.0420
 Red. masses --      2.5420                 2.9880                 5.1762
 Frc consts  --      0.3613                 0.4554                 1.0835
 IR Inten    --     92.7364                 0.1331                35.8254

                     25                     26                     27
                      A                      A                      A
 Frequencies --    635.1676               718.1093               736.3989
 Red. masses --      3.1004                 2.0498                 4.2946
 Frc consts  --      0.7370                 0.6228                 1.3721
 IR Inten    --     58.2896               301.4660                52.6090

                     28                     29                     30
                      A                      A                      A
 Frequencies --    753.0206               762.9346               794.5688
 Red. masses --      4.2368                 2.3951                 2.1141
 Frc consts  --      1.4155                 0.8214                 0.7864
 IR Inten    --     49.1730                 7.6434               247.9629

                     31                     32                     33
                      A                      A                      A
 Frequencies --    807.4966               829.3088               830.2335
 Red. masses --      1.3629                 1.1795                 1.3146
 Frc consts  --      0.5236                 0.4779                 0.5339
 IR Inten    --     10.7371                 1.6899                 2.4479

                     34                     35                     36
                      A                      A                      A
 Frequencies --    873.9449               897.3944               918.6930
 Red. masses --      1.3394                 1.6899                 1.8485
 Frc consts  --      0.6027                 0.8018                 0.9192
 IR Inten    --    182.1993                 8.8222                17.5301

                     37                     38                     39
                      A                      A                      A
 Frequencies --    953.1597               973.9679              1027.9173
 Red. masses --      2.0742                 1.5454                 3.2259
 Frc consts  --      1.1103                 0.8637                 2.0082
 IR Inten    --    182.0331                11.1608                17.6178

                     40                     41                     42
                      A                      A                      A
 Frequencies --   1089.1045              1090.9981              1137.7422
 Red. masses --      1.8553                 1.7928                 1.9419
 Frc consts  --      1.2966                 1.2573                 1.4810
 IR Inten    --      9.9085                 6.7937                14.8886

                     43                     44                     45
                      A                      A                      A
 Frequencies --   1153.9824              1167.8027              1200.2541
 Red. masses --      1.4190                 1.8357                 1.4893
 Frc consts  --      1.1134                 1.4750                 1.2641
 IR Inten    --      1.1364                 5.2743                 4.6417

                     46                     47                     48
                      A                      A                      A
 Frequencies --   1234.5872              1236.4506              1268.2910
 Red. masses --      1.5511                 1.1678                 1.6096
 Frc consts  --      1.3929                 1.0519                 1.5255
 IR Inten    --      3.4386                12.6190                 1.0623

                     49                     50                     51
                      A                      A                      A
 Frequencies --   1301.8919              1306.6078              1307.1745
 Red. masses --      1.2101                 1.6023                 1.0941
 Frc consts  --      1.2084                 1.6117                 1.1015
 IR Inten    --      8.1782                 7.5753                23.0118

                     52                     53                     54
                      A                      A                      A
 Frequencies --   1341.1604              1351.0315              1377.1904
 Red. masses --      1.7596                 1.1936                 1.4335
 Frc consts  --      1.8647                 1.2837                 1.6019
 IR Inten    --     11.1678                17.3534                 2.7210

                     55                     56                     57
                      A                      A                      A
 Frequencies --   1396.1497              1407.6822              1421.5664
 Red. masses --      1.0481                 1.3223                 2.1567
 Frc consts  --      1.2037                 1.5438                 2.5678
 IR Inten    --     19.4018                 9.5164                 1.3687

                     58                     59                     60
                      A                      A                      A
 Frequencies --   1426.3499              1427.7746              1434.3781
 Red. masses --      1.0830                 1.0685                 1.0745
 Frc consts  --      1.2981                 1.2834                 1.3025
 IR Inten    --     14.0706                11.8150                18.8189

                     61                     62                     63
                      A                      A                      A
 Frequencies --   1452.2406              1470.2803              1477.7078
 Red. masses --      1.0864                 1.0630                 1.1055
 Frc consts  --      1.3499                 1.3539                 1.4223
 IR Inten    --      3.4647                 5.5500                 6.7599

                     64                     65                     66
                      A                      A                      A
 Frequencies --   1500.8967              1615.3306              1875.3773
 Red. masses --      1.0482                 1.0943                11.7674
 Frc consts  --      1.3912                 1.6824                24.3842
 IR Inten    --      7.3373                33.3862               154.9413

                     67                     68                     69
                      A                      A                      A
 Frequencies --   2496.4814              2585.6441              2725.8496
 Red. masses --      1.0715                 1.0699                 1.0785
 Frc consts  --      3.9346                 4.2142                 4.7216
 IR Inten    --     49.3307                16.3454                10.1167

                     70                     71                     72
                      A                      A                      A
 Frequencies --   2768.4842              2868.0921              2978.4061
 Red. masses --      1.0700                 1.0650                 1.0821
 Frc consts  --      4.8317                 5.1618                 5.6555
 IR Inten    --     35.2848                55.6095                10.0618

                     73                     74                     75
                      A                      A                      A
 Frequencies --   3031.6507              3132.8317              3211.1204
 Red. masses --      1.0759                 1.0853                 1.0694
 Frc consts  --      5.8261                 6.2761                 6.4970
 IR Inten    --      1.6618                 8.7692                 2.1191

                     76                     77                     78
                      A                      A                      A
 Frequencies --   3212.2644              3260.1742              3265.0828
 Red. masses --      1.0767                 1.0700                 1.0885
 Frc consts  --      6.5462                 6.7009                 6.8368
 IR Inten    --     13.7310                28.9165                 1.1906

                     79                     80                     81
                      A                      A                      A
 Frequencies --   3288.5985              3398.2357              3487.4046
 Red. masses --      1.1090                 1.0892                 1.0893
 Frc consts  --      7.0666                 7.4107                 7.8056
 IR Inten    --      1.9621                 6.3988                 7.6402

                     82                     83                     84
                      A                      A                      A
 Frequencies --   3527.0918              3883.6449              4129.4495
 Red. masses --      1.0858                 1.0845                 1.0741
 Frc consts  --      7.9588                 9.6370                10.7916
 IR Inten    --     28.9471                34.5994                72.7662

 - Thermochemistry -
 -------------------
 Temperature   298.150 Kelvin.  Pressure   1.00000 Atm.
 Atom     1 has atomic number  6 and mass  12.00000

 Molecular mass:   188.11068 amu.
 Principal axes and moments of inertia in atomic units:
                           1         2         3
     Eigenvalues --  1792.199003491.913134487.03270
           X            0.99977  -0.02097  -0.00409
           Y            0.02086   0.99948  -0.02459
           Z            0.00460   0.02450   0.99969
 This molecule is an asymmetric top.
 Rotational symmetry number  1.
 Warning -- assumption of classical behavior for rotation
           may cause significant error
 Rotational temperatures (Kelvin)      0.04833     0.02480     0.01930
 Rotational constants (GHZ):           1.00700     0.51683     0.40221
    8 imaginary frequencies ignored.
 Zero-point vibrational energy     664584.3 (Joules/Mol)
                                  158.83945 (Kcal/Mol)
 Warning -- explicit consideration of  16 degrees of freedom as
           vibrations may cause significant error
 Vibrational temperatures:    139.56   157.20   209.22   234.89   250.73
          (Kelvin)            313.74   345.65   383.58   444.92   483.55
                              552.91   571.10   633.78   706.70   731.77
                              857.57   913.86  1033.20  1059.51  1083.43
                             1097.69  1143.21  1161.81  1193.19  1194.52
                             1257.41  1291.15  1321.79  1371.38  1401.32
                             1478.94  1566.98  1569.70  1636.96  1660.32
                             1680.21  1726.90  1776.30  1778.98  1824.79
                             1873.13  1879.92  1880.73  1929.63  1943.83
                             1981.47  2008.75  2025.34  2045.32  2052.20
                             2054.25  2063.75  2089.45  2115.41  2126.09
                             2159.46  2324.10  2698.25  3591.88  3720.17
                             3921.89  3983.23  4126.54  4285.26  4361.87
                             4507.45  4620.09  4621.73  4690.66  4697.73
                             4731.56  4889.30  5017.60  5074.70  5587.70
                             5941.36

 Zero-point correction=                           0.253127 (Hartree/Particle)
 Thermal correction to Energy=                    0.264499
 Thermal correction to Enthalpy=                  0.265444
 Thermal correction to Gibbs Free Energy=         0.216032
 Sum of electronic and zero-point Energies=           -808.629243
 Sum of electronic and thermal Energies=              -808.617870
 Sum of electronic and thermal Enthalpies=            -808.616926
 Sum of electronic and thermal Free Energies=         -808.666337

                     E (Thermal)             CV                S
                      KCal/Mol        Cal/Mol-Kelvin    Cal/Mol-Kelvin
 Total                  165.976             45.004            103.995
 Electronic               0.000              0.000              0.000
 Translational            0.889              2.981             41.601
 Rotational               0.889              2.981             31.707
 Vibrational            164.198             39.043             30.686
 Vibration     1          0.603              1.951              3.514
 Vibration     2          0.606              1.942              3.282
 Vibration     3          0.617              1.908              2.731
 Vibration     4          0.623              1.888              2.512
 Vibration     5          0.627              1.874              2.389
 Vibration     6          0.646              1.814              1.975
 Vibration     7          0.657              1.779              1.801
 Vibration     8          0.672              1.734              1.618
 Vibration     9          0.699              1.656              1.366
 Vibration    10          0.717              1.603              1.231
 Vibration    11          0.753              1.504              1.022
 Vibration    12          0.763              1.477              0.974
 Vibration    13          0.800              1.382              0.825
 Vibration    14          0.847              1.270              0.681
 Vibration    15          0.864              1.231              0.637
 Vibration    16          0.954              1.040              0.457

 Normal termination of Gaussian 16 at Wed Feb 24 15:45:48 2021.
