 Gaussian 16, Revision A.03,
 Gaussian 16:  ES64L-G16RevA.03 25-Dec-2016

 -----------------------------------------------------
 # opt freq em=gd3bj int=ultrafine pbe1pbe scf=xqc SVP
 -----------------------------------------------------

 -------------------
 Title Card Required
 -------------------
 Symbolic Z-matrix:
 Charge =  1 Multiplicity = 2

 SCF Done:  E(UPBE1PBE) =  -848.814341123     A.U. after   33 cycles
 SCF Done:  E(UPBE1PBE) =  -848.814817711     a.u. after    8 cycles
 SCF Done:  E(UPBE1PBE) =  -848.840381378     A.U. after   20 cycles
 SCF Done:  E(UPBE1PBE) =  -848.856235002     A.U. after   17 cycles
 SCF Done:  E(UPBE1PBE) =  -848.861070934     A.U. after   16 cycles
 SCF Done:  E(UPBE1PBE) =  -848.862280988     A.U. after   16 cycles
 SCF Done:  E(UPBE1PBE) =  -848.865032190     A.U. after   16 cycles
 SCF Done:  E(UPBE1PBE) =  -848.865513700     A.U. after   15 cycles
 SCF Done:  E(UPBE1PBE) =  -848.865661964     A.U. after   15 cycles
 SCF Done:  E(UPBE1PBE) =  -848.865758247     A.U. after   14 cycles
 SCF Done:  E(UPBE1PBE) =  -848.865789899     A.U. after   13 cycles
 SCF Done:  E(UPBE1PBE) =  -848.865798587     A.U. after   12 cycles
 SCF Done:  E(UPBE1PBE) =  -848.865801889     A.U. after   12 cycles
 SCF Done:  E(UPBE1PBE) =  -848.865804105     A.U. after   11 cycles
 SCF Done:  E(UPBE1PBE) =  -848.865805203     A.U. after    9 cycles
 SCF Done:  E(UPBE1PBE) =  -848.865805605     A.U. after    9 cycles
 SCF Done:  E(UPBE1PBE) =  -848.865805761     A.U. after    9 cycles
 Optimization completed.
    -- Stationary point found.
 Normal termination of Gaussian 16 at Mon Feb 22 23:05:19 2021.

 -----------------------------------------------------------------
 #N Geom=AllCheck Guess=TCheck SCRF=Check GenChk UPBE1PBE/SVP Freq
 -----------------------------------------------------------------

 Structure from the checkpoint file:  "305_73scan.chk"
 -------------------
 Title Card Required
 -------------------
 Charge =  1 Multiplicity = 2

                         Standard orientation:
 ---------------------------------------------------------------------
 Center     Atomic      Atomic             Coordinates (Angstroms)
 Number     Number       Type             X           Y           Z
 ---------------------------------------------------------------------
      1          6           0        2.022035   -1.628407   -1.187396
      2          6           0        3.519500   -1.632233    0.838827
      3          6           0       -1.776953   -1.730251    1.118709
      4          6           0       -3.297858    0.985640    0.854392
      5          6           0       -3.041914   -0.913242   -1.621881
      6          6           0        2.576389    0.527993    0.040747
      7          6           0        2.322096   -0.976821    0.159012
      8          6           0        1.473224    1.329703   -0.630657
      9          6           0        0.050575    0.953958    0.251887
     10          7           0        1.627495    2.689482   -0.615244
     11          8           0        0.065887    1.203492    1.413907
     12          8           0       -0.798368    0.429659   -0.533865
     13         14           0       -2.350882   -0.362428    0.003558
     14          1           0        1.903340   -2.715292   -1.068630
     15          1           0        2.847473   -1.467095   -1.899862
     16          1           0        1.094002   -1.254270   -1.647508
     17          1           0        3.341096   -2.706322    0.991210
     18          1           0        3.724829   -1.183416    1.822294
     19          1           0        4.427715   -1.530846    0.223199
     20          1           0       -2.648015   -2.306356    1.471476
     21          1           0       -1.258167   -1.339541    2.007163
     22          1           0       -1.109820   -2.428457    0.590436
     23          1           0       -4.262785    0.583824    1.205252
     24          1           0       -3.515236    1.822946    0.174170
     25          1           0       -2.758274    1.368271    1.733659
     26          1           0       -4.003196   -1.426895   -1.459150
     27          1           0       -2.366847   -1.619282   -2.128454
     28          1           0       -3.228067   -0.060634   -2.292055
     29          1           0        3.486982    0.698050   -0.561695
     30          1           0        2.759116    0.956743    1.040197
     31          1           0        1.449153   -1.124896    0.821702
     32          1           0        1.181300    0.979814   -1.630526
     33          1           0        2.070535    3.152606    0.176884
     34          1           0        1.162022    3.285415   -1.295043
 ---------------------------------------------------------------------

 SCF Done:  E(UPBE1PBE) =  -848.865805761     A.U. after    1 cycles

 The electronic state is 2-A.
 Alpha  occ. eigenvalues --  -66.39901 -19.41970 -19.40201 -14.64135 -10.55698
 Alpha  occ. eigenvalues --  -10.47480 -10.39223 -10.37117 -10.34510 -10.34426
 Alpha  occ. eigenvalues --  -10.34306 -10.34227 -10.33539  -5.48614  -3.82772
 Alpha  occ. eigenvalues --   -3.82115  -3.82110  -1.30637  -1.22834  -1.15587
 Alpha  occ. eigenvalues --   -0.97804  -0.91000  -0.87052  -0.83143  -0.82364
 Alpha  occ. eigenvalues --   -0.82290  -0.81271  -0.78350  -0.75608  -0.72204
 Alpha  occ. eigenvalues --   -0.69886  -0.68077  -0.67221  -0.64951  -0.61031
 Alpha  occ. eigenvalues --   -0.60025  -0.58157  -0.57372  -0.55989  -0.55516
 Alpha  occ. eigenvalues --   -0.54887  -0.54277  -0.53410  -0.52991  -0.52872
 Alpha  occ. eigenvalues --   -0.52114  -0.51650  -0.51407  -0.51077  -0.50231
 Alpha  occ. eigenvalues --   -0.47378  -0.46910  -0.46093  -0.45286  -0.45120
 Alpha  occ. eigenvalues --   -0.44055
 Alpha virt. eigenvalues --   -0.15318  -0.09832  -0.07784  -0.07182  -0.06513
 Alpha virt. eigenvalues --   -0.04724  -0.03150  -0.02522  -0.02173  -0.01204
 Alpha virt. eigenvalues --   -0.00534  -0.00237   0.00467   0.01329   0.01789

  Beta  occ. eigenvalues --  -66.39894 -19.41780 -19.39632 -14.63037 -10.55353
  Beta  occ. eigenvalues --  -10.47307 -10.39168 -10.37121 -10.34509 -10.34423
  Beta  occ. eigenvalues --  -10.34296 -10.34223 -10.33537  -5.48605  -3.82741
  Beta  occ. eigenvalues --   -3.82111  -3.82106  -1.29838  -1.21943  -1.13501
  Beta  occ. eigenvalues --   -0.97306  -0.90013  -0.86898  -0.82602  -0.82337
  Beta  occ. eigenvalues --   -0.82261  -0.81020  -0.77555  -0.74938  -0.70932
  Beta  occ. eigenvalues --   -0.69429  -0.66906  -0.66494  -0.64470  -0.60711
  Beta  occ. eigenvalues --   -0.59284  -0.57958  -0.56825  -0.55663  -0.55376
  Beta  occ. eigenvalues --   -0.54847  -0.53934  -0.52966  -0.52752  -0.52104
  Beta  occ. eigenvalues --   -0.51501  -0.51416  -0.50572  -0.50197  -0.48328
  Beta  occ. eigenvalues --   -0.46937  -0.46860  -0.45883  -0.45192  -0.45039
  Beta virt. eigenvalues --   -0.32593  -0.14569  -0.09350  -0.07621  -0.07000
  Beta virt. eigenvalues --   -0.06171  -0.04519  -0.03020  -0.02174  -0.01962
  Beta virt. eigenvalues --   -0.01126  -0.00256   0.00399   0.00534   0.01522

 Mulliken charges and spin densities:
               1          2
     1  C   -0.054814   0.000263
     2  C   -0.024260   0.000377
     3  C   -0.340587   0.000786
     4  C   -0.331140   0.003252
     5  C   -0.324676   0.001500
     6  C   -0.006899   0.028379
     7  C   -0.266914  -0.001162
     8  C   -0.072326   0.056418
     9  C    0.287337   0.132064
    10  N   -0.030693   0.512013
    11  O   -0.133830   0.199405
    12  O   -0.385278   0.037759
    13  Si   0.631903   0.015166
    14  H    0.071569   0.000298
    15  H    0.059704  -0.000037
    16  H    0.046704  -0.000017
    17  H    0.067678   0.000675
    18  H    0.058809   0.000007
    19  H    0.056594   0.000126
    20  H    0.114314   0.001428
    21  H    0.104367   0.000149
    22  H    0.099826  -0.000060
    23  H    0.113387   0.002994
    24  H    0.098292  -0.000219
    25  H    0.104027   0.000448
    26  H    0.109862   0.001273
    27  H    0.100542  -0.000098
    28  H    0.101246  -0.000078
    29  H    0.090799   0.015154
    30  H    0.075027  -0.000974
    31  H    0.066189  -0.000644
    32  H    0.118504   0.028941
    33  H    0.197131  -0.017861
    34  H    0.197604  -0.017725
 Sum of Mulliken charges =   1.00000   1.00000

 Dipole moment (field-independent basis, Debye):
    X=              1.0884    Y=              4.3384    Z=             -2.0640  Tot=              4.9261
 Quadrupole moment (field-independent basis, Debye-Ang):
   XX=            -54.5845   YY=            -59.9037   ZZ=            -82.6004
   XY=             10.9649   XZ=             -1.7396   YZ=             -5.7970

  Exact polarizability: 155.578  12.347 141.748  -3.794  -5.689 121.236
 Approx polarizability: 186.319  19.181 185.746  -8.685  -7.252 188.422

                      1                      2                      3
                      A                      A                      A
 Frequencies --     18.3741                26.0152                55.2162
 Red. masses --      3.3899                 3.7983                 2.6532
 Frc consts  --      0.0007                 0.0015                 0.0048
 IR Inten    --      0.8378                 0.8867                 0.0563

                      4                      5                      6
                      A                      A                      A
 Frequencies --     79.5178                89.9887               105.9401
 Red. masses --      4.0849                 3.8709                 3.4337
 Frc consts  --      0.0152                 0.0185                 0.0227
 IR Inten    --      0.0585                 2.6205                 1.8018

                      7                      8                      9
                      A                      A                      A
 Frequencies --    142.9915               147.7086               161.4494
 Red. masses --      1.0226                 2.9729                 1.0649
 Frc consts  --      0.0123                 0.0382                 0.0164
 IR Inten    --      0.0091                 1.5343                 0.0263

                     10                     11                     12
                      A                      A                      A
 Frequencies --    169.5697               174.3048               187.6973
 Red. masses --      1.4022                 2.0484                 2.2955
 Frc consts  --      0.0238                 0.0367                 0.0476
 IR Inten    --      0.4399                 0.5380                 2.4261

                     13                     14                     15
                      A                      A                      A
 Frequencies --    197.6575               225.9316               235.9384
 Red. masses --      2.4505                 2.3787                 1.2284
 Frc consts  --      0.0564                 0.0715                 0.0403
 IR Inten    --      0.5917                 1.8634                 0.5075

                     16                     17                     18
                      A                      A                      A
 Frequencies --    239.6114               249.2200               261.9870
 Red. masses --      1.7053                 2.7890                 2.3523
 Frc consts  --      0.0577                 0.1021                 0.0951
 IR Inten    --      2.2047                 7.1905                19.9152

                     19                     20                     21
                      A                      A                      A
 Frequencies --    273.0110               281.9688               348.0012
 Red. masses --      2.0872                 2.5663                 2.4711
 Frc consts  --      0.0917                 0.1202                 0.1763
 IR Inten    --     17.8350                10.1766                 5.3555

                     22                     23                     24
                      A                      A                      A
 Frequencies --    393.7127               401.6618               448.0554
 Red. masses --      2.4400                 1.2191                 2.4014
 Frc consts  --      0.2228                 0.1159                 0.2840
 IR Inten    --     21.6770                12.7784                22.4060

                     25                     26                     27
                      A                      A                      A
 Frequencies --    473.1689               497.7594               593.8812
 Red. masses --      2.2856                 2.4377                 3.7120
 Frc consts  --      0.3015                 0.3558                 0.7714
 IR Inten    --     13.3738                82.5508                69.8168

                     28                     29                     30
                      A                      A                      A
 Frequencies --    614.9192               647.3285               686.2912
 Red. masses --      2.0574                 4.1659                 1.1733
 Frc consts  --      0.4584                 1.0285                 0.3256
 IR Inten    --     69.6747                44.0804                 0.0083

                     31                     32                     33
                      A                      A                      A
 Frequencies --    690.8725               694.9737               726.9062
 Red. masses --      1.5635                 1.5169                 7.1091
 Frc consts  --      0.4397                 0.4317                 2.2132
 IR Inten    --     44.9512                 6.8469                 9.1249

                     34                     35                     36
                      A                      A                      A
 Frequencies --    734.7319               771.9421               782.2947
 Red. masses --      5.1166                 1.8858                 1.8705
 Frc consts  --      1.6274                 0.6621                 0.6744
 IR Inten    --    217.5240                15.5408                44.6606

                     37                     38                     39
                      A                      A                      A
 Frequencies --    843.3698               847.5567               865.7117
 Red. masses --      2.2007                 1.6900                 1.6028
 Frc consts  --      0.9223                 0.7153                 0.7078
 IR Inten    --     45.6076               175.1343                 6.9854

                     40                     41                     42
                      A                      A                      A
 Frequencies --    880.4368               886.7267               926.8692
 Red. masses --      1.8804                 1.9733                 1.2333
 Frc consts  --      0.8588                 0.9141                 0.6242
 IR Inten    --    127.9153               118.6183                 0.4056

                     43                     44                     45
                      A                      A                      A
 Frequencies --    941.0926               975.1330               995.6393
 Red. masses --      1.6194                 1.4540                 1.7125
 Frc consts  --      0.8450                 0.8146                 1.0002
 IR Inten    --      3.8993                 0.4083                 3.7105

                     46                     47                     48
                      A                      A                      A
 Frequencies --   1075.4414              1122.6754              1155.4021
 Red. masses --      1.3341                 1.4345                 1.8059
 Frc consts  --      0.9091                 1.0652                 1.4204
 IR Inten    --      4.3413                59.2196                32.5304

                     49                     50                     51
                      A                      A                      A
 Frequencies --   1180.9799              1199.4695              1250.0868
 Red. masses --      1.8198                 1.7386                 1.5672
 Frc consts  --      1.4954                 1.4738                 1.4429
 IR Inten    --      1.6051                 2.1780                40.2807

                     52                     53                     54
                      A                      A                      A
 Frequencies --   1273.7533              1274.4599              1276.8808
 Red. masses --      1.3922                 1.4590                 1.4476
 Frc consts  --      1.3308                 1.3963                 1.3906
 IR Inten    --     81.9559                79.6409                69.6649

                     55                     56                     57
                      A                      A                      A
 Frequencies --   1282.5521              1315.8281              1329.9556
 Red. masses --      1.2441                 1.8412                 2.2195
 Frc consts  --      1.2057                 1.8783                 2.3130
 IR Inten    --     26.0827               185.2248               180.3985

                     58                     59                     60
                      A                      A                      A
 Frequencies --   1352.6653              1379.7264              1397.3794
 Red. masses --      1.4191                 1.4138                 1.4112
 Frc consts  --      1.5299                 1.5857                 1.6236
 IR Inten    --     14.8213                 3.0952                14.3234

                     61                     62                     63
                      A                      A                      A
 Frequencies --   1408.1230              1409.8563              1416.8284
 Red. masses --      1.2263                 1.0635                 1.0510
 Frc consts  --      1.4326                 1.2455                 1.2431
 IR Inten    --     12.8615                 0.8888                 0.2371

                     64                     65                     66
                      A                      A                      A
 Frequencies --   1417.6620              1424.4422              1426.2190
 Red. masses --      1.0513                 1.0447                 1.0448
 Frc consts  --      1.2448                 1.2489                 1.2522
 IR Inten    --      2.2533                12.6324                 8.4825

                     67                     68                     69
                      A                      A                      A
 Frequencies --   1427.7179              1437.1441              1437.8152
 Red. masses --      1.1259                 1.4960                 1.1481
 Frc consts  --      1.3521                 1.8204                 1.3984
 IR Inten    --      8.6143                13.3226                19.0229

                     70                     71                     72
                      A                      A                      A
 Frequencies --   1457.4326              1467.0346              1480.5415
 Red. masses --      1.0512                 1.0610                 1.0886
 Frc consts  --      1.3155                 1.3453                 1.4059
 IR Inten    --      1.4544                 5.1010                 6.5753

                     73                     74                     75
                      A                      A                      A
 Frequencies --   1486.1839              1616.6937              1939.0158
 Red. masses --      1.0485                 1.2423                12.5054
 Frc consts  --      1.3644                 1.9131                27.7020
 IR Inten    --     19.0821                61.5378               324.9701

                     76                     77                     78
                      A                      A                      A
 Frequencies --   3042.9308              3052.5828              3054.3114
 Red. masses --      1.0816                 1.0559                 1.0456
 Frc consts  --      5.9005                 5.7973                 5.7469
 IR Inten    --     12.5421                 8.0906                10.7115

                     79                     80                     81
                      A                      A                      A
 Frequencies --   3059.1159              3059.8667              3060.9186
 Red. masses --      1.0395                 1.0370                 1.0369
 Frc consts  --      5.7317                 5.7204                 5.7240
 IR Inten    --      8.9299                 1.1111                 2.7903

                     82                     83                     84
                      A                      A                      A
 Frequencies --   3064.0312              3118.8409              3142.9877
 Red. masses --      1.0370                 1.1035                 1.0969
 Frc consts  --      5.7358                 6.3241                 6.3844
 IR Inten    --      2.1334                 1.9007                 5.7769

                     85                     86                     87
                      A                      A                      A
 Frequencies --   3145.3726              3152.4389              3158.6434
 Red. masses --      1.0948                 1.1036                 1.1026
 Frc consts  --      6.3813                 6.4619                 6.4813
 IR Inten    --     14.7224                 9.7844                 5.9808

                     88                     89                     90
                      A                      A                      A
 Frequencies --   3160.6423              3161.4496              3166.1959
 Red. masses --      1.1007                 1.1007                 1.1012
 Frc consts  --      6.4782                 6.4818                 6.5040
 IR Inten    --      0.5938                 1.1904                 1.1742

                     91                     92                     93
                      A                      A                      A
 Frequencies --   3166.9291              3175.4759              3178.6219
 Red. masses --      1.1041                 1.1038                 1.1038
 Frc consts  --      6.5243                 6.5579                 6.5708
 IR Inten    --      7.2471                 0.0914                 0.2256

                     94                     95                     96
                      A                      A                      A
 Frequencies --   3178.9566              3548.3017              3679.1000
 Red. masses --      1.1036                 1.0493                 1.1057
 Frc consts  --      6.5712                 7.7839                 8.8179
 IR Inten    --      0.0370               261.0867               111.5926

 - Thermochemistry -
 -------------------
 Temperature   298.150 Kelvin.  Pressure   1.00000 Atm.
 Atom     1 has atomic number  6 and mass  12.00000

 Molecular mass:   203.13416 amu.
 Principal axes and moments of inertia in atomic units:
                           1         2         3
     Eigenvalues --  1925.302274239.809044951.68248
           X            0.99991  -0.01316   0.00185
           Y            0.01318   0.99989  -0.00711
           Z           -0.00176   0.00714   0.99997
 This molecule is an asymmetric top.
 Rotational symmetry number  1.
 Warning -- assumption of classical behavior for rotation
           may cause significant error
 Rotational temperatures (Kelvin)      0.04499     0.02043     0.01749
 Rotational constants (GHZ):           0.93738     0.42567     0.36447
 Zero-point vibrational energy     769442.9 (Joules/Mol)
                                  183.90128 (Kcal/Mol)
 Warning -- explicit consideration of  28 degrees of freedom as
           vibrations may cause significant error
 Vibrational temperatures:     26.44    37.43    79.44   114.41   129.47
          (Kelvin)            152.42   205.73   212.52   232.29   243.97
                              250.79   270.05   284.38   325.07   339.46
                              344.75   358.57   376.94   392.80   405.69
                              500.70   566.46   577.90   644.65   680.78
                              716.16   854.46   884.73   931.36   987.42
                              994.01   999.91  1045.86  1057.12  1110.65
                             1125.55  1213.42  1219.45  1245.57  1266.75
                             1275.80  1333.56  1354.02  1403.00  1432.50
                             1547.32  1615.28  1662.37  1699.17  1725.77
                             1798.60  1832.65  1833.66  1837.15  1845.31
                             1893.18  1913.51  1946.18  1985.12  2010.52
                             2025.97  2028.47  2038.50  2039.70  2049.45
                             2052.01  2054.17  2067.73  2068.70  2096.92
                             2110.74  2130.17  2138.29  2326.06  2789.81
                             4378.10  4391.99  4394.47  4401.39  4402.47
                             4403.98  4408.46  4487.32  4522.06  4525.49
                             4535.66  4544.58  4547.46  4548.62  4555.45
                             4556.50  4568.80  4573.33  4573.81  5105.21
                             5293.40

 Zero-point correction=                           0.293065 (Hartree/Particle)
 Thermal correction to Energy=                    0.312108
 Thermal correction to Enthalpy=                  0.313052
 Thermal correction to Gibbs Free Energy=         0.244878
 Sum of electronic and zero-point Energies=           -848.572740
 Sum of electronic and thermal Energies=              -848.553698
 Sum of electronic and thermal Enthalpies=            -848.552754
 Sum of electronic and thermal Free Energies=         -848.620928

                     E (Thermal)             CV                S
                      KCal/Mol        Cal/Mol-Kelvin    Cal/Mol-Kelvin
 Total                  195.851             68.516            143.485
 Electronic               0.000              0.000              1.377
 Translational            0.889              2.981             41.830
 Rotational               0.889              2.981             32.069
 Vibrational            194.073             62.554             68.208
 Vibration     1          0.593              1.986              6.803
 Vibration     2          0.593              1.985              6.112
 Vibration     3          0.596              1.975              4.621
 Vibration     4          0.600              1.963              3.903
 Vibration     5          0.602              1.956              3.660
 Vibration     6          0.605              1.944              3.342
 Vibration     7          0.616              1.910              2.763
 Vibration     8          0.617              1.905              2.702
 Vibration     9          0.622              1.890              2.533
 Vibration    10          0.625              1.880              2.440
 Vibration    11          0.627              1.874              2.389
 Vibration    12          0.632              1.857              2.250
 Vibration    13          0.637              1.843              2.155
 Vibration    14          0.650              1.802              1.911
 Vibration    15          0.655              1.786              1.833
 Vibration    16          0.657              1.780              1.806
 Vibration    17          0.662              1.764              1.736
 Vibration    18          0.669              1.742              1.648
 Vibration    19          0.676              1.723              1.577
 Vibration    20          0.681              1.707              1.522
 Vibration    21          0.726              1.579              1.175
 Vibration    22          0.761              1.484              0.986
 Vibration    23          0.767              1.467              0.957
 Vibration    24          0.807              1.365              0.802
 Vibration    25          0.830              1.310              0.729
 Vibration    26          0.853              1.255              0.664
 Vibration    27          0.952              1.045              0.460
 Vibration    28          0.974              1.000              0.425

                           ! Non-Optimized Parameters !
 Normal termination of Gaussian 16 at Mon Feb 22 23:25:12 2021.
