 Gaussian 16, Revision A.03,
 Gaussian 16:  ES64L-G16RevA.03 25-Dec-2016

 ---------------------------------------------------------
 # freq=hpmodes em=gd3bj int=ultrafine pbe1pbe scf=xqc svp
 ---------------------------------------------------------

 -------------------
 Title Card Required
 -------------------
 Symbolic Z-matrix:
 Charge =  1 Multiplicity = 2

                         Standard orientation:
 ---------------------------------------------------------------------
 Center     Atomic      Atomic             Coordinates (Angstroms)
 Number     Number       Type             X           Y           Z
 ---------------------------------------------------------------------
      1          6           0       -1.733149   -1.858323    0.589942
      2          6           0       -3.970499   -1.511928   -0.402036
      3          6           0        2.452594   -2.149880   -0.707085
      4          6           0        3.769585    0.526416   -0.666662
      5          6           0        2.261223   -0.112200    2.111842
      6          6           0       -2.646647    0.461092    0.269727
      7          6           0       -2.559158   -0.987860   -0.257796
      8          6           0       -1.207657    1.127547    0.552002
      9          6           0       -0.218263    1.053267   -0.608104
     10          7           0       -1.327278    2.576707    0.643701
     11          8           0       -0.389741    1.681735   -1.617524
     12          8           0        0.870783    0.321249   -0.373665
     13         14           0        2.288465   -0.313824    0.079922
     14          1           0       -1.959428   -1.587226    1.618707
     15          1           0       -0.642741   -1.574705    0.491327
     16          1           0       -1.852134   -2.938469    0.433879
     17          1           0       -4.503205   -1.395824    0.558583
     18          1           0       -4.047453   -2.448888   -0.850017
     19          1           0       -4.318097   -0.817929   -1.211223
     20          1           0        2.195280   -2.277588   -1.808364
     21          1           0        1.852117   -2.912856   -0.148654
     22          1           0        3.553967   -2.432449   -0.666598
     23          1           0        4.493062   -0.082211   -1.415431
     24          1           0        4.399813    0.961313    0.102195
     25          1           0        3.576678    1.395540   -1.296458
     26          1           0        3.264187   -0.383715    2.384720
     27          1           0        1.389938   -0.651514    2.547600
     28          1           0        2.169064    0.948620    2.394407
     29          1           0       -3.281581    0.527941    1.113070
     30          1           0       -3.140061    1.093134   -0.477474
     31          1           0       -2.097836   -0.920623   -1.156384
     32          1           0       -0.921497    0.685341    1.513090
     33          1           0       -2.264363    2.868011    1.100698
     34          1           0       -1.349782    2.988038   -0.213964
 ---------------------------------------------------------------------

 SCF Done:  E(UPBE1PBE) =  -848.738275648     A.U. after   24 cycles

 The electronic state is 2-A.
 Alpha  occ. eigenvalues --  -66.41443 -19.39537 -19.36951 -14.66874 -10.54418
 Alpha  occ. eigenvalues --  -10.48939 -10.42880 -10.38180 -10.35833 -10.35827
 Alpha  occ. eigenvalues --  -10.35560 -10.34997 -10.33258  -5.49616  -3.83728
 Alpha  occ. eigenvalues --   -3.83234  -3.83159  -1.27908  -1.19870  -1.16540
 Alpha  occ. eigenvalues --   -1.00674  -0.93636  -0.87194  -0.84969  -0.83905
 Alpha  occ. eigenvalues --   -0.81503  -0.80302  -0.79560  -0.77642  -0.73178
 Alpha  occ. eigenvalues --   -0.70086  -0.68816  -0.65706  -0.63706  -0.62356
 Alpha  occ. eigenvalues --   -0.61705  -0.59463  -0.57461  -0.57196  -0.56340
 Alpha  occ. eigenvalues --   -0.55208  -0.54225  -0.53691  -0.53107  -0.52624
 Alpha  occ. eigenvalues --   -0.51875  -0.51216  -0.50725  -0.49997  -0.49482
 Alpha  occ. eigenvalues --   -0.48371  -0.48160  -0.46858  -0.46646  -0.42908
 Alpha  occ. eigenvalues --   -0.42493
 Alpha virt. eigenvalues --   -0.17275  -0.11058  -0.08576  -0.07094  -0.06307
 Alpha virt. eigenvalues --   -0.06130  -0.03704  -0.03456  -0.02386  -0.01883
 Alpha virt. eigenvalues --   -0.00913  -0.00484  -0.00218   0.00472   0.01225

  Beta  occ. eigenvalues --  -66.41439 -19.39422 -19.36936 -14.65487 -10.54427
  Beta  occ. eigenvalues --  -10.48840 -10.42604 -10.38105 -10.35829 -10.35733
  Beta  occ. eigenvalues --  -10.35495 -10.34906 -10.33259  -5.49615  -3.83731
  Beta  occ. eigenvalues --   -3.83219  -3.83143  -1.27744  -1.19573  -1.14264
  Beta  occ. eigenvalues --   -1.00029  -0.92722  -0.86795  -0.84721  -0.83568
  Beta  occ. eigenvalues --   -0.81245  -0.80123  -0.79310  -0.77034  -0.72827
  Beta  occ. eigenvalues --   -0.69285  -0.67843  -0.64739  -0.63447  -0.62063
  Beta  occ. eigenvalues --   -0.59919  -0.59157  -0.57262  -0.56789  -0.55073
  Beta  occ. eigenvalues --   -0.54217  -0.53561  -0.53181  -0.52964  -0.51985
  Beta  occ. eigenvalues --   -0.51077  -0.50727  -0.50567  -0.49819  -0.48307
  Beta  occ. eigenvalues --   -0.48149  -0.46815  -0.46430  -0.42448  -0.41488
  Beta virt. eigenvalues --   -0.38283  -0.17042  -0.10557  -0.08389  -0.07022
  Beta virt. eigenvalues --   -0.06135  -0.05985  -0.03622  -0.03054  -0.02235
  Beta virt. eigenvalues --   -0.01774  -0.00698  -0.00312  -0.00077   0.00588

 Mulliken charges and spin densities:
               1          2
     1  C   -0.038730   0.002046
     2  C    0.007207   0.027401
     3  C   -0.417355   0.055949
     4  C   -0.383321  -0.000012
     5  C   -0.377250   0.062687
     6  C    0.000096   0.125801
     7  C   -0.219735   0.032792
     8  C   -0.128256   0.018174
     9  C    0.338184  -0.003150
    10  N    0.019906   0.607903
    11  O   -0.191222   0.005516
    12  O   -0.407494   0.035708
    13  Si   0.800433   0.003065
    14  H    0.038402   0.000973
    15  H    0.051626   0.003251
    16  H    0.093086   0.005185
    17  H    0.073564  -0.000771
    18  H    0.069446   0.010941
    19  H    0.062408  -0.001227
    20  H    0.113140  -0.000580
    21  H    0.093119  -0.000348
    22  H    0.111854   0.001023
    23  H    0.124532   0.003792
    24  H    0.089262   0.001308
    25  H    0.091318  -0.000071
    26  H    0.113174   0.000064
    27  H    0.093844  -0.001133
    28  H    0.088418  -0.000298
    29  H    0.072929  -0.003706
    30  H    0.073793  -0.002781
    31  H    0.047819  -0.000934
    32  H    0.122624   0.029380
    33  H    0.213560  -0.007951
    34  H    0.159618  -0.009998
 Sum of Mulliken charges =   1.00000   1.00000

 Dipole moment (field-independent basis, Debye):
    X=             -4.0156    Y=              2.8694    Z=              3.1829  Tot=              5.8728
 Quadrupole moment (field-independent basis, Debye-Ang):
   XX=            -49.0135   YY=            -65.9827   ZZ=            -84.4953
   XY=             -8.3834   XZ=             -3.8663   YZ=              7.6674

  Exact polarizability: 451.331-122.447 239.250  -4.748  21.014 138.331
 Approx polarizability: 576.171-242.062 422.027 -13.898  28.632 193.767

 ******   10 imaginary frequencies (negative Signs) ******

                      1                      2                      3
                      A                      A                      A
 Frequencies --   -894.8183              -360.4036              -324.7073
 Red. masses --      1.1004                 1.0499                 2.6596
 Frc consts  --      0.5191                 0.0803                 0.1652
 IR Inten    --   2614.2205                 4.7088               143.0733

                      4                      5                      6
                      A                      A                      A
 Frequencies --   -294.3369              -243.0525              -235.5379
 Red. masses --      1.0574                 2.3799                 2.1713
 Frc consts  --      0.0540                 0.0828                 0.0710
 IR Inten    --     16.5568                 7.7837                 7.8907

                      7                      8                      9
                      A                      A                      A
 Frequencies --   -212.8543              -185.0048              -129.3462
 Red. masses --      1.1962                 1.9912                 2.6225
 Frc consts  --      0.0319                 0.0402                 0.0259
 IR Inten    --      1.2829                13.1932                72.8043

                     10                     11                     12
                      A                      A                      A
 Frequencies --   -101.6796                91.3073               100.6907
 Red. masses --      5.1323                 3.4962                 5.5285
 Frc consts  --      0.0313                 0.0172                 0.0330
 IR Inten    --    148.6990                29.5510                 8.3420

                     13                     14                     15
                      A                      A                      A
 Frequencies --    123.3387               151.6065               177.6340
 Red. masses --      4.2628                 2.8824                 3.5584
 Frc consts  --      0.0382                 0.0390                 0.0662
 IR Inten    --      5.6597                75.2371                51.8013

                     16                     17                     18
                      A                      A                      A
 Frequencies --    205.1015               220.2356               240.9072
 Red. masses --      2.6281                 2.1188                 2.8269
 Frc consts  --      0.0651                 0.0606                 0.0967
 IR Inten    --    136.8459                49.3559               135.3123

                     19                     20                     21
                      A                      A                      A
 Frequencies --    257.2955               279.7444               312.7431
 Red. masses --      1.8752                 2.4606                 2.0225
 Frc consts  --      0.0731                 0.1135                 0.1165
 IR Inten    --    377.8703               146.1579               312.2028

                     22                     23                     24
                      A                      A                      A
 Frequencies --    342.6183               361.9551               384.3634
 Red. masses --      2.5718                 3.0331                 3.2376
 Frc consts  --      0.1779                 0.2341                 0.2818
 IR Inten    --      4.0913                17.0084               646.7821

                     25                     26                     27
                      A                      A                      A
 Frequencies --    417.3054               454.3182               460.2153
 Red. masses --      2.7001                 1.0658                 3.2250
 Frc consts  --      0.2770                 0.1296                 0.4024
 IR Inten    --    166.8422                76.1309                77.2176

                     28                     29                     30
                      A                      A                      A
 Frequencies --    512.5135               589.9339               624.7020
 Red. masses --      4.7740                 3.0183                 1.5859
 Frc consts  --      0.7388                 0.6189                 0.3647
 IR Inten    --     47.8004                74.8951               265.3035

                     31                     32                     33
                      A                      A                      A
 Frequencies --    636.2340               667.3733               711.6060
 Red. masses --      1.4219                 2.1406                 2.2519
 Frc consts  --      0.3391                 0.5617                 0.6719
 IR Inten    --     57.5277              1100.8038               144.9072

                     34                     35                     36
                      A                      A                      A
 Frequencies --    741.7993               748.2730               798.4024
 Red. masses --      1.9130                 1.8015                 1.4230
 Frc consts  --      0.6202                 0.5943                 0.5344
 IR Inten    --     12.5241                18.3541               369.2930

                     37                     38                     39
                      A                      A                      A
 Frequencies --    826.2711               826.7818               832.4256
 Red. masses --      1.2988                 1.3965                 1.6420
 Frc consts  --      0.5224                 0.5624                 0.6704
 IR Inten    --     33.6298                46.1192               259.0402

                     40                     41                     42
                      A                      A                      A
 Frequencies --    861.3821               873.9573               886.7328
 Red. masses --      1.4935                 2.2399                 1.8799
 Frc consts  --      0.6529                 1.0080                 0.8709
 IR Inten    --     40.5022               106.8282               272.3393

                     43                     44                     45
                      A                      A                      A
 Frequencies --    907.9403               932.5041               977.1630
 Red. masses --      1.4305                 1.8040                 2.3928
 Frc consts  --      0.6948                 0.9243                 1.3462
 IR Inten    --    117.2305                40.0281               131.6344

                     46                     47                     48
                      A                      A                      A
 Frequencies --   1004.7407              1038.8234              1047.4183
 Red. masses --      2.0302                 2.6664                 1.8694
 Frc consts  --      1.2075                 1.6954                 1.2083
 IR Inten    --    854.9340                10.9418               556.5181

                     49                     50                     51
                      A                      A                      A
 Frequencies --   1071.8274              1118.2650              1126.9246
 Red. masses --      1.3339                 1.5043                 1.2066
 Frc consts  --      0.9029                 1.1083                 0.9028
 IR Inten    --     73.1707                66.3345               311.3797

                     52                     53                     54
                      A                      A                      A
 Frequencies --   1137.4854              1169.0600              1189.4742
 Red. masses --      1.5943                 1.5405                 1.7281
 Frc consts  --      1.2154                 1.2405                 1.4406
 IR Inten    --     16.3545               285.2907                31.6642

                     55                     56                     57
                      A                      A                      A
 Frequencies --   1209.3200              1234.9373              1283.5873
 Red. masses --      1.2823                 1.7359                 1.3910
 Frc consts  --      1.1049                 1.5598                 1.3502
 IR Inten    --     19.8890                15.7258               239.2374

                     58                     59                     60
                      A                      A                      A
 Frequencies --   1304.3121              1341.6529              1343.8957
 Red. masses --      1.7485                 1.1889                 1.1676
 Frc consts  --      1.7525                 1.2609                 1.2424
 IR Inten    --     58.3775                39.0716                15.7655

                     61                     62                     63
                      A                      A                      A
 Frequencies --   1364.1665              1382.5996              1405.9238
 Red. masses --      1.0683                 2.4008                 1.0879
 Frc consts  --      1.1713                 2.7039                 1.2670
 IR Inten    --      5.9772                45.3369                36.8608

                     64                     65                     66
                      A                      A                      A
 Frequencies --   1417.6325              1418.8698              1438.9651
 Red. masses --      1.1670                 1.0776                 1.0581
 Frc consts  --      1.3818                 1.2781                 1.2909
 IR Inten    --     22.6807                19.3915                16.3226

                     67                     68                     69
                      A                      A                      A
 Frequencies --   1441.2498              1450.2177              1450.5511
 Red. masses --      1.0577                 1.0614                 1.1505
 Frc consts  --      1.2944                 1.3152                 1.4263
 IR Inten    --      2.8458                14.3990                41.7324

                     70                     71                     72
                      A                      A                      A
 Frequencies --   1458.8449              1462.6600              1481.1531
 Red. masses --      1.0590                 1.0663                 1.2671
 Frc consts  --      1.3279                 1.3440                 1.6378
 IR Inten    --      4.9209                 6.5936                 1.2092

                     73                     74                     75
                      A                      A                      A
 Frequencies --   1497.3235              1564.8154              1833.1310
 Red. masses --      1.0674                 1.1166                11.2249
 Frc consts  --      1.4100                 1.6109                22.2239
 IR Inten    --     16.4513                22.2202               147.2774

                     76                     77                     78
                      A                      A                      A
 Frequencies --   2287.8477              2790.7593              2838.5786
 Red. masses --      1.0707                 1.0442                 1.0984
 Frc consts  --      3.3018                 4.7918                 5.2147
 IR Inten    --     18.8696                 8.3185                 0.5564

                     79                     80                     81
                      A                      A                      A
 Frequencies --   2841.5924              2908.6657              2921.8566
 Red. masses --      1.0690                 1.0601                 1.0699
 Frc consts  --      5.0857                 5.2841                 5.3816
 IR Inten    --     28.9073                19.6052               764.1253

                     82                     83                     84
                      A                      A                      A
 Frequencies --   2976.7849              3002.5157              3100.1158
 Red. masses --      1.0942                 1.0511                 1.0892
 Frc consts  --      5.7126                 5.5831                 6.1678
 IR Inten    --      8.0346                 8.0536                 7.6100

                     85                     86                     87
                      A                      A                      A
 Frequencies --   3136.7451              3142.2339              3153.5285
 Red. masses --      1.0909                 1.0695                 1.0814
 Frc consts  --      6.3241                 6.2215                 6.3361
 IR Inten    --      3.1345                 3.1385                 9.5943

                     88                     89                     90
                      A                      A                      A
 Frequencies --   3161.2348              3220.2506              3242.0956
 Red. masses --      1.0824                 1.0709                 1.1017
 Frc consts  --      6.3731                 6.5431                 6.8229
 IR Inten    --     24.5609                 5.5941                 7.3579

                     91                     92                     93
                      A                      A                      A
 Frequencies --   3282.4186              3405.3106              3539.1485
 Red. masses --      1.0907                 1.0958                 1.0874
 Frc consts  --      6.9235                 7.4869                 8.0246
 IR Inten    --     11.4565                11.3185                14.0084

                     94                     95                     96
                      A                      A                      A
 Frequencies --   3712.6443              3985.3850              4423.2868
 Red. masses --      1.0898                 1.0870                 1.0769
 Frc consts  --      8.8501                10.1725                12.4139
 IR Inten    --     33.8686                11.3073              1298.1090

 - Thermochemistry -
 -------------------
 Temperature   298.150 Kelvin.  Pressure   1.00000 Atm.
 Atom     1 has atomic number  6 and mass  12.00000

 Molecular mass:   203.13416 amu.
 Principal axes and moments of inertia in atomic units:
                           1         2         3
     Eigenvalues --  1955.836384469.284065225.14108
           X            0.99997   0.00679  -0.00221
           Y           -0.00672   0.99953   0.02994
           Z            0.00241  -0.02992   0.99955
 This molecule is an asymmetric top.
 Rotational symmetry number  1.
 Warning -- assumption of classical behavior for rotation
           may cause significant error
 Rotational temperatures (Kelvin)      0.04428     0.01938     0.01658
 Rotational constants (GHZ):           0.92275     0.40381     0.34540
   10 imaginary frequencies ignored.
 Zero-point vibrational energy     749461.6 (Joules/Mol)
                                  179.12563 (Kcal/Mol)
 Warning -- explicit consideration of  19 degrees of freedom as
           vibrations may cause significant error
 Vibrational temperatures:    131.37   144.87   177.46   218.13   255.58
          (Kelvin)            295.10   316.87   346.61   370.19   402.49
                              449.97   492.95   520.77   553.01   600.41
                              653.66   662.15   737.39   848.78   898.81
                              915.40   960.20  1023.84  1067.28  1076.60
                             1148.72  1188.82  1189.55  1197.67  1239.34
                             1257.43  1275.81  1306.32  1341.67  1405.92
                             1445.60  1494.64  1507.00  1542.12  1608.93
                             1621.39  1636.59  1682.02  1711.39  1739.94
                             1776.80  1846.80  1876.61  1930.34  1933.57
                             1962.73  1989.25  2022.81  2039.66  2041.44
                             2070.35  2073.64  2086.54  2087.02  2098.95
                             2104.44  2131.05  2154.31  2251.42  2637.47
                             3291.70  4015.28  4084.08  4088.42  4184.92
                             4203.90  4282.93  4319.95  4460.38  4513.08
                             4520.97  4537.22  4548.31  4633.22  4664.65
                             4722.67  4899.48  5092.05  5341.67  5734.08
                             6364.12

 Zero-point correction=                           0.285455 (Hartree/Particle)
 Thermal correction to Energy=                    0.298556
 Thermal correction to Enthalpy=                  0.299500
 Thermal correction to Gibbs Free Energy=         0.246134
 Sum of electronic and zero-point Energies=           -848.452821
 Sum of electronic and thermal Energies=              -848.439720
 Sum of electronic and thermal Enthalpies=            -848.438775
 Sum of electronic and thermal Free Energies=         -848.492142

                     E (Thermal)             CV                S
                      KCal/Mol        Cal/Mol-Kelvin    Cal/Mol-Kelvin
 Total                  187.347             52.500            112.320
 Electronic               0.000              0.000              1.377
 Translational            0.889              2.981             41.830
 Rotational               0.889              2.981             32.191
 Vibrational            185.569             46.538             36.921
 Vibration     1          0.602              1.955              3.632
 Vibration     2          0.604              1.949              3.441
 Vibration     3          0.610              1.930              3.047
 Vibration     4          0.619              1.901              2.652
 Vibration     5          0.628              1.870              2.353
 Vibration     6          0.640              1.833              2.087
 Vibration     7          0.647              1.810              1.957
 Vibration     8          0.658              1.778              1.796
 Vibration     9          0.667              1.750              1.680
 Vibration    10          0.680              1.711              1.535
 Vibration    11          0.701              1.649              1.348
 Vibration    12          0.722              1.590              1.200
 Vibration    13          0.736              1.551              1.114
 Vibration    14          0.753              1.504              1.022
 Vibration    15          0.780              1.433              0.901
 Vibration    16          0.813              1.351              0.783
 Vibration    17          0.818              1.338              0.765
 Vibration    18          0.868              1.222              0.628
 Vibration    19          0.947              1.053              0.467

 Normal termination of Gaussian 16 at Wed Feb 24 21:50:01 2021.
