 Gaussian 16, Revision A.03,
 Gaussian 16:  ES64L-G16RevA.03 25-Dec-2016

 ---------------------------------------------------------
 # freq=hpmodes em=gd3bj int=ultrafine pbe1pbe scf=xqc svp
 ---------------------------------------------------------

 -------------------
 Title Card Required
 -------------------
 Symbolic Z-matrix:
 Charge =  1 Multiplicity = 1

                         Standard orientation:
 ---------------------------------------------------------------------
 Center     Atomic      Atomic             Coordinates (Angstroms)
 Number     Number       Type             X           Y           Z
 ---------------------------------------------------------------------
      1          6           0        1.445405    1.211111    0.752910
      2          6           0        2.754064   -0.511211   -0.443236
      3          6           0        0.379546   -0.958526    0.064930
      4          6           0        1.405526    0.148863   -0.261336
      5          6           0       -1.098226   -0.393230    0.366863
      6          6           0       -1.664130    0.546230   -0.694943
      7          7           0       -2.083291   -1.461391    0.259813
      8          8           0       -1.877182    1.796574   -0.284963
      9          1           0        1.354840    0.716521    1.717395
     10          1           0        0.501697    1.832347    0.701576
     11          1           0        2.324800    1.867902    0.730133
     12          1           0        2.988122   -1.116291    0.450710
     13          1           0        3.512872    0.122762   -0.770024
     14          1           0        2.517078   -1.111787   -1.359964
     15          1           0        0.724282   -1.588475    0.841563
     16          1           0        0.284216   -1.633169   -0.793565
     17          1           0        1.082798    0.570450   -1.123257
     18          1           0       -1.010808   -0.027542    1.396308
     19          1           0       -1.680905   -2.406180    0.602293
     20          1           0       -2.331619   -1.628813   -0.643287
 ---------------------------------------------------------------------

 SCF Done:  E(RPBE1PBE) =  -364.666848857     A.U. after   25 cycles

 The electronic state is 1-A.
 Alpha  occ. eigenvalues --  -19.55393 -14.61067 -10.64254 -10.54050 -10.44002
 Alpha  occ. eigenvalues --  -10.40190 -10.37796 -10.36813  -1.30608  -1.15297
 Alpha  occ. eigenvalues --   -1.02130  -0.95489  -0.88708  -0.85868  -0.81018
 Alpha  occ. eigenvalues --   -0.75304  -0.74083  -0.70635  -0.69497  -0.66124
 Alpha  occ. eigenvalues --   -0.64699  -0.63246  -0.61481  -0.60446  -0.58619
 Alpha  occ. eigenvalues --   -0.55837  -0.55022  -0.52765  -0.50186  -0.48609
 Alpha  occ. eigenvalues --   -0.46326
 Alpha virt. eigenvalues --   -0.41272  -0.31397  -0.10906  -0.08848  -0.08073
 Alpha virt. eigenvalues --   -0.06353  -0.04474  -0.02387  -0.02285  -0.01105
 Alpha virt. eigenvalues --   -0.00395   0.00493   0.01555   0.01960   0.03749

 Mulliken charges:
               1
     1  C   -0.030604
     2  C    0.008781
     3  C   -0.026409
     4  C   -0.236379
     5  C   -0.084401
     6  C    0.393780
     7  N   -0.147414
     8  O   -0.023928
     9  H    0.053291
    10  H    0.045541
    11  H    0.108899
    12  H    0.080099
    13  H    0.071638
    14  H    0.061382
    15  H    0.094144
    16  H    0.074149
    17  H    0.038545
    18  H    0.182422
    19  H    0.197036
    20  H    0.139427
 Sum of Mulliken charges =   1.00000

 Dipole moment (field-independent basis, Debye):
    X=             -1.9860    Y=             -2.4378    Z=             -0.6712  Tot=              3.2152
 Quadrupole moment (field-independent basis, Debye-Ang):
   XX=            -35.4261   YY=            -39.1405   ZZ=            -43.3805
   XY=              3.9354   XZ=              3.0440   YZ=             -0.4281

  Exact polarizability: 124.738  -0.137  99.162   4.688  -8.382  63.789
 Approx polarizability: 190.057 -34.812 247.787  22.673 -49.045 119.584

 ******    5 imaginary frequencies (negative Signs) ******

                      1                      2                      3
                      A                      A                      A
 Frequencies --   -959.8504              -337.1363              -222.1192
 Red. masses --      1.1242                 1.0436                 2.0893
 Frc consts  --      0.6102                 0.0699                 0.0607
 IR Inten    --    167.4184                 5.5045                 7.1397

                      4                      5                      6
                      A                      A                      A
 Frequencies --   -200.0099              -104.2324               158.0740
 Red. masses --      2.7799                 2.4942                 2.6378
 Frc consts  --      0.0655                 0.0160                 0.0388
 IR Inten    --      0.9567                 6.0737                10.2182

                      7                      8                      9
                      A                      A                      A
 Frequencies --    194.7714               228.9145               292.2131
 Red. masses --      1.2019                 2.3505                 2.2185
 Frc consts  --      0.0269                 0.0726                 0.1116
 IR Inten    --      4.3411                19.7133                12.1771

                     10                     11                     12
                      A                      A                      A
 Frequencies --    341.8149               369.7348               417.1400
 Red. masses --      2.8283                 2.2901                 2.6058
 Frc consts  --      0.1947                 0.1845                 0.2671
 IR Inten    --     14.2572                19.1279                64.4669

                     13                     14                     15
                      A                      A                      A
 Frequencies --    510.6452               592.4210               616.6869
 Red. masses --      4.5112                 2.8147                 2.8860
 Frc consts  --      0.6931                 0.5820                 0.6467
 IR Inten    --      1.3368               262.9435                55.0111

                     16                     17                     18
                      A                      A                      A
 Frequencies --    653.3460               699.6374               754.3512
 Red. masses --      3.6104                 3.5308                 1.4527
 Frc consts  --      0.9080                 1.0183                 0.4870
 IR Inten    --     17.7990                73.4135                49.2158

                     19                     20                     21
                      A                      A                      A
 Frequencies --    794.4034               825.4312               856.4401
 Red. masses --      1.1417                 2.0989                 1.5578
 Frc consts  --      0.4245                 0.8426                 0.6732
 IR Inten    --     22.7299               105.7380               122.1398

                     22                     23                     24
                      A                      A                      A
 Frequencies --    921.6139               954.9932               990.1174
 Red. masses --      2.7840                 2.1269                 1.8708
 Frc consts  --      1.3932                 1.1429                 1.0805
 IR Inten    --     51.9741                24.4016                12.2926

                     25                     26                     27
                      A                      A                      A
 Frequencies --   1038.2391              1071.9702              1087.0288
 Red. masses --      1.3377                 1.5290                 1.3121
 Frc consts  --      0.8496                 1.0352                 0.9135
 IR Inten    --     99.3642                13.0594                 3.9070

                     28                     29                     30
                      A                      A                      A
 Frequencies --   1111.4769              1128.7500              1137.9922
 Red. masses --      2.7455                 1.8291                 1.5768
 Frc consts  --      1.9983                 1.3730                 1.2031
 IR Inten    --      1.4395                29.5330                69.4978

                     31                     32                     33
                      A                      A                      A
 Frequencies --   1161.4098              1211.7792              1224.3964
 Red. masses --      1.8578                 1.3548                 1.3991
 Frc consts  --      1.4765                 1.1722                 1.2358
 IR Inten    --      2.9106                20.0630                16.1537

                     34                     35                     36
                      A                      A                      A
 Frequencies --   1313.8508              1347.0304              1393.5807
 Red. masses --      1.6925                 1.1613                 1.1508
 Frc consts  --      1.7213                 1.2415                 1.3168
 IR Inten    --     25.2933                 4.5839                17.4818

                     37                     38                     39
                      A                      A                      A
 Frequencies --   1415.1168              1442.1204              1456.8485
 Red. masses --      1.1421                 1.1409                 1.0778
 Frc consts  --      1.3475                 1.3980                 1.3477
 IR Inten    --     41.8262                13.7415                42.9607

                     40                     41                     42
                      A                      A                      A
 Frequencies --   1468.9817              1485.9656              1634.0013
 Red. masses --      1.1296                 1.1171                 1.0859
 Frc consts  --      1.4362                 1.4534                 1.7082
 IR Inten    --     22.7924                21.6120                64.5520

                     43                     44                     45
                      A                      A                      A
 Frequencies --   2812.4709              2907.9855              2913.6751
 Red. masses --      1.0688                 1.0600                 1.0683
 Frc consts  --      4.9812                 5.2813                 5.3434
 IR Inten    --     79.3805                13.9983                87.2080

                     46                     47                     48
                      A                      A                      A
 Frequencies --   3101.3037              3139.2888              3156.3610
 Red. masses --      1.0888                 1.0674                 1.0795
 Frc consts  --      6.1700                 6.1979                 6.3364
 IR Inten    --      4.2004                17.6343                12.5034

                     49                     50                     51
                      A                      A                      A
 Frequencies --   3168.8109              3240.2105              3536.3480
 Red. masses --      1.0850                 1.1006                 1.0860
 Frc consts  --      6.4191                 6.8079                 8.0019
 IR Inten    --     41.6583                 5.7318                 2.3748

                     52                     53                     54
                      A                      A                      A
 Frequencies --   3715.3454              3963.6856              4438.8333
 Red. masses --      1.0903                 1.0853                 1.0758
 Frc consts  --      8.8674                10.0460                12.4890
 IR Inten    --      4.2075                15.1578                58.5180

 - Thermochemistry -
 -------------------
 Temperature   298.150 Kelvin.  Pressure   1.00000 Atm.
 Atom     1 has atomic number  6 and mass  12.00000

 Molecular mass:   114.09189 amu.
 Principal axes and moments of inertia in atomic units:
                           1         2         3
     Eigenvalues --   622.396041370.550861767.44591
           X            0.99943   0.03338  -0.00551
           Y           -0.03319   0.99894   0.03179
           Z            0.00656  -0.03158   0.99948
 This molecule is an asymmetric top.
 Rotational symmetry number  1.
 Warning -- assumption of classical behavior for rotation
           may cause significant error
 Rotational temperatures (Kelvin)      0.13916     0.06320     0.04901
 Rotational constants (GHZ):           2.89967     1.31680     1.02110
    5 imaginary frequencies ignored.
 Zero-point vibrational energy     444996.5 (Joules/Mol)
                                  106.35672 (Kcal/Mol)
 Warning -- explicit consideration of  10 degrees of freedom as
           vibrations may cause significant error
 Vibrational temperatures:    227.43   280.23   329.36   420.43   491.80
          (Kelvin)            531.97   600.17   734.70   852.36   887.27
                              940.02  1006.62  1085.34  1142.97  1187.61
                             1232.23  1326.00  1374.02  1424.56  1493.79
                             1542.33  1563.99  1599.17  1624.02  1637.32
                             1671.01  1743.48  1761.63  1890.34  1938.08
                             2005.05  2036.04  2074.89  2096.08  2113.54
                             2137.97  2350.96  4046.52  4183.94  4192.13
                             4462.08  4516.74  4541.30  4559.21  4661.94
                             5088.02  5345.55  5702.86  6386.49

 Zero-point correction=                           0.169490 (Hartree/Particle)
 Thermal correction to Energy=                    0.176952
 Thermal correction to Enthalpy=                  0.177897
 Thermal correction to Gibbs Free Energy=         0.137892
 Sum of electronic and zero-point Energies=           -364.497359
 Sum of electronic and thermal Energies=              -364.489896
 Sum of electronic and thermal Enthalpies=            -364.488952
 Sum of electronic and thermal Free Energies=         -364.528957

                     E (Thermal)             CV                S
                      KCal/Mol        Cal/Mol-Kelvin    Cal/Mol-Kelvin
 Total                  111.039             29.811             84.197
 Electronic               0.000              0.000              0.000
 Translational            0.889              2.981             40.111
 Rotational               0.889              2.981             28.802
 Vibrational            109.262             23.849             15.285
 Vibration     1          0.621              1.894              2.573
 Vibration     2          0.635              1.847              2.182
 Vibration     3          0.652              1.797              1.887
 Vibration     4          0.688              1.688              1.461
 Vibration     5          0.721              1.592              1.204
 Vibration     6          0.742              1.534              1.081
 Vibration     7          0.780              1.433              0.902
 Vibration     8          0.866              1.226              0.632
 Vibration     9          0.950              1.048              0.463
 Vibration    10          0.976              0.997              0.422

 Normal termination of Gaussian 16 at Wed Feb 24 15:47:04 2021.
